LAMMPS data file. CGCMM style. atom_style full generated by VMD/TopoTools v1.8 on Mon Oct 16 23:59:28 +0330 2023
 1092 atoms
 334 bonds
 187 angles
 8 dihedrals
 0 impropers
 8 atom types
 1 bond types
 4 angle types
 1 dihedral types
 0 improper types
 -0.039500 24.199500  xlo xhi
 -0.219000 17.320000  ylo yhi
 -0.000000 31.450001  zlo zhi

# Pair Coeffs
#
# 1  C
# 2  Ca
# 3  Cl
# 4  HW
# 5  N
# 6  Na
# 7  OW
# 8  Ti

# Bond Coeffs
#
# 1  

# Angle Coeffs
#
# 1  Cl-Cl-Cl
# 2  Cl-OW-HW
# 3  HW-OW-HW
# 4  OW-Cl-OW

# Dihedral Coeffs
#
# 1  OW-Cl-OW-HW

 Masses

 1 12.010700 # C
 2 40.077999 # Ca
 3 35.452999 # Cl
 4 1.007940 # HW
 5 14.006700 # N
 6 22.989771 # Na
 7 15.999400 # OW
 8 47.867001 # Ti

 Atoms # full

1 1 8 0.000000 0.000000 0.000000 3.225000 # Ti MOL
2 1 8 0.000000 24.160000 1.744000 6.450000 # Ti MOL
3 1 8 0.000000 1.510000 0.872000 0.000000 # Ti MOL
4 1 1 0.000000 1.510000 0.872000 4.837000 # C MOL
5 1 5 0.000000 24.160000 1.744000 1.613000 # N MOL
6 1 8 0.000000 22.650000 2.615000 3.225000 # Ti MOL
7 1 8 0.000000 22.650000 4.359000 6.450000 # Ti MOL
8 1 8 0.000000 0.000000 3.487000 0.000000 # Ti MOL
9 1 1 0.000000 0.000000 3.487000 4.837000 # C MOL
10 1 5 0.000000 22.650000 4.359000 1.613000 # N MOL
11 1 8 0.000000 21.139999 5.231000 3.225000 # Ti MOL
12 1 8 0.000000 21.139999 6.974000 6.450000 # Ti MOL
13 1 8 0.000000 22.650000 6.103000 0.000000 # Ti MOL
14 1 1 0.000000 22.650000 6.103000 4.837000 # C MOL
15 1 5 0.000000 21.139999 6.974000 1.613000 # N MOL
16 1 8 0.000000 19.629999 7.846000 3.225000 # Ti MOL
17 1 8 0.000000 19.629999 9.590000 6.450000 # Ti MOL
18 1 8 0.000000 21.139999 8.718000 0.000000 # Ti MOL
19 1 1 0.000000 21.139999 8.718000 4.837000 # C MOL
20 1 5 0.000000 19.629999 9.590000 1.613000 # N MOL
21 1 8 0.000000 18.120001 10.462000 3.225000 # Ti MOL
22 1 8 0.000000 18.120001 12.205000 6.450000 # Ti MOL
23 1 8 0.000000 19.629999 11.333000 0.000000 # Ti MOL
24 1 1 0.000000 19.629999 11.333000 4.837000 # C MOL
25 1 5 0.000000 18.120001 12.205000 1.613000 # N MOL
26 1 8 0.000000 16.610001 13.077000 3.225000 # Ti MOL
27 1 8 0.000000 16.610001 14.821000 6.450000 # Ti MOL
28 1 8 0.000000 18.120001 13.949000 0.000000 # Ti MOL
29 1 1 0.000000 18.120001 13.949000 4.837000 # C MOL
30 1 5 0.000000 16.610001 14.821000 1.613000 # N MOL
31 1 8 0.000000 15.100000 15.692000 3.225000 # Ti MOL
32 1 8 0.000000 15.100000 17.436001 6.450000 # Ti MOL
33 1 8 0.000000 16.610001 16.563999 0.000000 # Ti MOL
34 1 1 0.000000 16.610001 16.563999 4.837000 # C MOL
35 1 5 0.000000 15.100000 17.436001 1.613000 # N MOL
36 1 8 0.000000 3.020000 0.000000 3.225000 # Ti MOL
37 1 8 0.000000 3.020000 1.744000 6.450000 # Ti MOL
38 1 8 0.000000 4.530000 0.872000 0.000000 # Ti MOL
39 1 1 0.000000 4.530000 0.872000 4.837000 # C MOL
40 1 5 0.000000 3.020000 1.744000 1.613000 # N MOL
41 1 8 0.000000 1.510000 2.615000 3.225000 # Ti MOL
42 1 8 0.000000 1.510000 4.359000 6.450000 # Ti MOL
43 1 8 0.000000 3.020000 3.487000 0.000000 # Ti MOL
44 1 1 0.000000 3.020000 3.487000 4.837000 # C MOL
45 1 5 0.000000 1.510000 4.359000 1.613000 # N MOL
46 1 8 0.000000 0.000000 5.231000 3.225000 # Ti MOL
47 1 8 0.000000 24.160000 6.974000 6.450000 # Ti MOL
48 1 8 0.000000 1.510000 6.103000 0.000000 # Ti MOL
49 1 1 0.000000 1.510000 6.103000 4.837000 # C MOL
50 1 5 0.000000 24.160000 6.974000 1.613000 # N MOL
51 1 8 0.000000 22.650000 7.846000 3.225000 # Ti MOL
52 1 8 0.000000 22.650000 9.590000 6.450000 # Ti MOL
53 1 8 0.000000 0.000000 8.718000 0.000000 # Ti MOL
54 1 1 0.000000 0.000000 8.718000 4.837000 # C MOL
55 1 5 0.000000 22.650000 9.590000 1.613000 # N MOL
56 1 8 0.000000 21.139999 10.462000 3.225000 # Ti MOL
57 1 8 0.000000 21.139999 12.205000 6.450000 # Ti MOL
58 1 8 0.000000 22.650000 11.333000 0.000000 # Ti MOL
59 1 1 0.000000 22.650000 11.333000 4.837000 # C MOL
60 1 5 0.000000 21.139999 12.205000 1.613000 # N MOL
61 1 8 0.000000 19.629999 13.077000 3.225000 # Ti MOL
62 1 8 0.000000 19.629999 14.821000 6.450000 # Ti MOL
63 1 8 0.000000 21.139999 13.949000 0.000000 # Ti MOL
64 1 1 0.000000 21.139999 13.949000 4.837000 # C MOL
65 1 5 0.000000 19.629999 14.821000 1.613000 # N MOL
66 1 8 0.000000 18.120001 15.692000 3.225000 # Ti MOL
67 1 8 0.000000 18.120001 17.436001 6.450000 # Ti MOL
68 1 8 0.000000 19.629999 16.563999 0.000000 # Ti MOL
69 1 1 0.000000 19.629999 16.563999 4.837000 # C MOL
70 1 5 0.000000 18.120001 17.436001 1.613000 # N MOL
71 1 8 0.000000 6.040000 0.000000 3.225000 # Ti MOL
72 1 8 0.000000 6.040000 1.744000 6.450000 # Ti MOL
73 1 8 0.000000 7.550000 0.872000 0.000000 # Ti MOL
74 1 1 0.000000 7.550000 0.872000 4.837000 # C MOL
75 1 5 0.000000 6.040000 1.744000 1.613000 # N MOL
76 1 8 0.000000 4.530000 2.615000 3.225000 # Ti MOL
77 1 8 0.000000 4.530000 4.359000 6.450000 # Ti MOL
78 1 8 0.000000 6.040000 3.487000 0.000000 # Ti MOL
79 1 1 0.000000 6.040000 3.487000 4.837000 # C MOL
80 1 5 0.000000 4.530000 4.359000 1.613000 # N MOL
81 1 8 0.000000 3.020000 5.231000 3.225000 # Ti MOL
82 1 8 0.000000 3.020000 6.974000 6.450000 # Ti MOL
83 1 8 0.000000 4.530000 6.103000 0.000000 # Ti MOL
84 1 1 0.000000 4.530000 6.103000 4.837000 # C MOL
85 1 5 0.000000 3.020000 6.974000 1.613000 # N MOL
86 1 8 0.000000 1.510000 7.846000 3.225000 # Ti MOL
87 1 8 0.000000 1.510000 9.590000 6.450000 # Ti MOL
88 1 8 0.000000 3.020000 8.718000 0.000000 # Ti MOL
89 1 1 0.000000 3.020000 8.718000 4.837000 # C MOL
90 1 5 0.000000 1.510000 9.590000 1.613000 # N MOL
91 1 8 0.000000 0.000000 10.462000 3.225000 # Ti MOL
92 1 8 0.000000 24.160000 12.205000 6.450000 # Ti MOL
93 1 8 0.000000 1.510000 11.333000 0.000000 # Ti MOL
94 1 1 0.000000 1.510000 11.333000 4.837000 # C MOL
95 1 5 0.000000 24.160000 12.205000 1.613000 # N MOL
96 1 8 0.000000 22.650000 13.077000 3.225000 # Ti MOL
97 1 8 0.000000 22.650000 14.821000 6.450000 # Ti MOL
98 1 8 0.000000 0.000000 13.949000 0.000000 # Ti MOL
99 1 1 0.000000 0.000000 13.949000 4.837000 # C MOL
100 1 5 0.000000 22.650000 14.821000 1.613000 # N MOL
101 1 8 0.000000 21.139999 15.692000 3.225000 # Ti MOL
102 1 8 0.000000 21.139999 17.436001 6.450000 # Ti MOL
103 1 8 0.000000 22.650000 16.563999 0.000000 # Ti MOL
104 1 1 0.000000 22.650000 16.563999 4.837000 # C MOL
105 1 5 0.000000 21.139999 17.436001 1.613000 # N MOL
106 1 8 0.000000 9.060000 0.000000 3.225000 # Ti MOL
107 1 8 0.000000 9.060000 1.744000 6.450000 # Ti MOL
108 1 8 0.000000 10.570000 0.872000 0.000000 # Ti MOL
109 1 1 0.000000 10.570000 0.872000 4.837000 # C MOL
110 1 5 0.000000 9.060000 1.744000 1.613000 # N MOL
111 1 8 0.000000 7.550000 2.615000 3.225000 # Ti MOL
112 1 8 0.000000 7.550000 4.359000 6.450000 # Ti MOL
113 1 8 0.000000 9.060000 3.487000 0.000000 # Ti MOL
114 1 1 0.000000 9.060000 3.487000 4.837000 # C MOL
115 1 5 0.000000 7.550000 4.359000 1.613000 # N MOL
116 1 8 0.000000 6.040000 5.231000 3.225000 # Ti MOL
117 1 8 0.000000 6.040000 6.974000 6.450000 # Ti MOL
118 1 8 0.000000 7.550000 6.103000 0.000000 # Ti MOL
119 1 1 0.000000 7.550000 6.103000 4.837000 # C MOL
120 1 5 0.000000 6.040000 6.974000 1.613000 # N MOL
121 1 8 0.000000 4.530000 7.846000 3.225000 # Ti MOL
122 1 8 0.000000 4.530000 9.590000 6.450000 # Ti MOL
123 1 8 0.000000 6.040000 8.718000 0.000000 # Ti MOL
124 1 1 0.000000 6.040000 8.718000 4.837000 # C MOL
125 1 5 0.000000 4.530000 9.590000 1.613000 # N MOL
126 1 8 0.000000 3.020000 10.462000 3.225000 # Ti MOL
127 1 8 0.000000 3.020000 12.205000 6.450000 # Ti MOL
128 1 8 0.000000 4.530000 11.333000 0.000000 # Ti MOL
129 1 1 0.000000 4.530000 11.333000 4.837000 # C MOL
130 1 5 0.000000 3.020000 12.205000 1.613000 # N MOL
131 1 8 0.000000 1.510000 13.077000 3.225000 # Ti MOL
132 1 8 0.000000 1.510000 14.821000 6.450000 # Ti MOL
133 1 8 0.000000 3.020000 13.949000 0.000000 # Ti MOL
134 1 1 0.000000 3.020000 13.949000 4.837000 # C MOL
135 1 5 0.000000 1.510000 14.821000 1.613000 # N MOL
136 1 8 0.000000 0.000000 15.692000 3.225000 # Ti MOL
137 1 8 0.000000 24.160000 17.436001 6.450000 # Ti MOL
138 1 8 0.000000 1.510000 16.563999 0.000000 # Ti MOL
139 1 1 0.000000 1.510000 16.563999 4.837000 # C MOL
140 1 5 0.000000 24.160000 17.436001 1.613000 # N MOL
141 1 8 0.000000 12.080000 0.000000 3.225000 # Ti MOL
142 1 8 0.000000 12.080000 1.744000 6.450000 # Ti MOL
143 1 8 0.000000 13.590000 0.872000 0.000000 # Ti MOL
144 1 1 0.000000 13.590000 0.872000 4.837000 # C MOL
145 1 5 0.000000 12.080000 1.744000 1.613000 # N MOL
146 1 8 0.000000 10.570000 2.615000 3.225000 # Ti MOL
147 1 8 0.000000 10.570000 4.359000 6.450000 # Ti MOL
148 1 8 0.000000 12.080000 3.487000 0.000000 # Ti MOL
149 1 1 0.000000 12.080000 3.487000 4.837000 # C MOL
150 1 5 0.000000 10.570000 4.359000 1.613000 # N MOL
151 1 8 0.000000 9.060000 5.231000 3.225000 # Ti MOL
152 1 8 0.000000 9.060000 6.974000 6.450000 # Ti MOL
153 1 8 0.000000 10.570000 6.103000 0.000000 # Ti MOL
154 1 1 0.000000 10.570000 6.103000 4.837000 # C MOL
155 1 5 0.000000 9.060000 6.974000 1.613000 # N MOL
156 1 8 0.000000 7.550000 7.846000 3.225000 # Ti MOL
157 1 8 0.000000 7.550000 9.590000 6.450000 # Ti MOL
158 1 8 0.000000 9.060000 8.718000 0.000000 # Ti MOL
159 1 1 0.000000 9.060000 8.718000 4.837000 # C MOL
160 1 5 0.000000 7.550000 9.590000 1.613000 # N MOL
161 1 8 0.000000 6.040000 10.462000 3.225000 # Ti MOL
162 1 8 0.000000 6.040000 12.205000 6.450000 # Ti MOL
163 1 8 0.000000 7.550000 11.333000 0.000000 # Ti MOL
164 1 1 0.000000 7.550000 11.333000 4.837000 # C MOL
165 1 5 0.000000 6.040000 12.205000 1.613000 # N MOL
166 1 8 0.000000 4.530000 13.077000 3.225000 # Ti MOL
167 1 8 0.000000 4.530000 14.821000 6.450000 # Ti MOL
168 1 8 0.000000 6.040000 13.949000 0.000000 # Ti MOL
169 1 1 0.000000 6.040000 13.949000 4.837000 # C MOL
170 1 5 0.000000 4.530000 14.821000 1.613000 # N MOL
171 1 8 0.000000 3.020000 15.692000 3.225000 # Ti MOL
172 1 8 0.000000 3.020000 17.436001 6.450000 # Ti MOL
173 1 8 0.000000 4.530000 16.563999 0.000000 # Ti MOL
174 1 1 0.000000 4.530000 16.563999 4.837000 # C MOL
175 1 5 0.000000 3.020000 17.436001 1.613000 # N MOL
176 1 8 0.000000 15.100000 0.000000 3.225000 # Ti MOL
177 1 8 0.000000 15.100000 1.744000 6.450000 # Ti MOL
178 1 8 0.000000 16.610001 0.872000 0.000000 # Ti MOL
179 1 1 0.000000 16.610001 0.872000 4.837000 # C MOL
180 1 5 0.000000 15.100000 1.744000 1.613000 # N MOL
181 1 8 0.000000 13.590000 2.615000 3.225000 # Ti MOL
182 1 8 0.000000 13.590000 4.359000 6.450000 # Ti MOL
183 1 8 0.000000 15.100000 3.487000 0.000000 # Ti MOL
184 1 1 0.000000 15.100000 3.487000 4.837000 # C MOL
185 1 5 0.000000 13.590000 4.359000 1.613000 # N MOL
186 1 8 0.000000 12.080000 5.231000 3.225000 # Ti MOL
187 1 8 0.000000 13.590000 6.103000 0.000000 # Ti MOL
188 1 1 0.000000 13.590000 6.103000 4.837000 # C MOL
189 1 5 0.000000 12.080000 6.974000 1.613000 # N MOL
190 1 5 0.000000 10.570000 9.590000 1.613000 # N MOL
191 1 8 0.000000 9.060000 10.462000 3.225000 # Ti MOL
192 1 8 0.000000 9.060000 12.205000 6.450000 # Ti MOL
193 1 8 0.000000 10.570000 11.333000 0.000000 # Ti MOL
194 1 1 0.000000 10.570000 11.333000 4.837000 # C MOL
195 1 5 0.000000 9.060000 12.205000 1.613000 # N MOL
196 1 8 0.000000 7.550000 13.077000 3.225000 # Ti MOL
197 1 8 0.000000 7.550000 14.821000 6.450000 # Ti MOL
198 1 8 0.000000 9.060000 13.949000 0.000000 # Ti MOL
199 1 1 0.000000 9.060000 13.949000 4.837000 # C MOL
200 1 5 0.000000 7.550000 14.821000 1.613000 # N MOL
201 1 8 0.000000 6.040000 15.692000 3.225000 # Ti MOL
202 1 8 0.000000 6.040000 17.436001 6.450000 # Ti MOL
203 1 8 0.000000 7.550000 16.563999 0.000000 # Ti MOL
204 1 1 0.000000 7.550000 16.563999 4.837000 # C MOL
205 1 5 0.000000 6.040000 17.436001 1.613000 # N MOL
206 1 8 0.000000 18.120001 0.000000 3.225000 # Ti MOL
207 1 8 0.000000 18.120001 1.744000 6.450000 # Ti MOL
208 1 8 0.000000 19.629999 0.872000 0.000000 # Ti MOL
209 1 1 0.000000 19.629999 0.872000 4.837000 # C MOL
210 1 5 0.000000 18.120001 1.744000 1.613000 # N MOL
211 1 8 0.000000 16.610001 2.615000 3.225000 # Ti MOL
212 1 8 0.000000 16.610001 4.359000 6.450000 # Ti MOL
213 1 8 0.000000 18.120001 3.487000 0.000000 # Ti MOL
214 1 1 0.000000 18.120001 3.487000 4.837000 # C MOL
215 1 5 0.000000 16.610001 4.359000 1.613000 # N MOL
216 1 8 0.000000 15.100000 5.231000 3.225000 # Ti MOL
217 1 8 0.000000 15.100000 6.974000 6.450000 # Ti MOL
218 1 8 0.000000 16.610001 6.103000 0.000000 # Ti MOL
219 1 1 0.000000 16.610001 6.103000 4.837000 # C MOL
220 1 5 0.000000 15.100000 6.974000 1.613000 # N MOL
221 1 8 0.000000 15.100000 8.718000 0.000000 # Ti MOL
222 1 1 0.000000 15.100000 8.718000 4.837000 # C MOL
223 1 5 0.000000 13.590000 9.590000 1.613000 # N MOL
224 1 8 0.000000 12.080000 12.205000 6.450000 # Ti MOL
225 1 8 0.000000 13.590000 11.333000 0.000000 # Ti MOL
226 1 1 0.000000 13.590000 11.333000 4.837000 # C MOL
227 1 5 0.000000 12.080000 12.205000 1.613000 # N MOL
228 1 8 0.000000 10.570000 13.077000 3.225000 # Ti MOL
229 1 8 0.000000 10.570000 14.821000 6.450000 # Ti MOL
230 1 8 0.000000 12.080000 13.949000 0.000000 # Ti MOL
231 1 1 0.000000 12.080000 13.949000 4.837000 # C MOL
232 1 5 0.000000 10.570000 14.821000 1.613000 # N MOL
233 1 8 0.000000 9.060000 15.692000 3.225000 # Ti MOL
234 1 8 0.000000 9.060000 17.436001 6.450000 # Ti MOL
235 1 8 0.000000 10.570000 16.563999 0.000000 # Ti MOL
236 1 1 0.000000 10.570000 16.563999 4.837000 # C MOL
237 1 5 0.000000 9.060000 17.436001 1.613000 # N MOL
238 1 8 0.000000 21.139999 0.000000 3.225000 # Ti MOL
239 1 8 0.000000 21.139999 1.744000 6.450000 # Ti MOL
240 1 8 0.000000 22.650000 0.872000 0.000000 # Ti MOL
241 1 1 0.000000 22.650000 0.872000 4.837000 # C MOL
242 1 5 0.000000 21.139999 1.744000 1.613000 # N MOL
243 1 8 0.000000 19.629999 2.615000 3.225000 # Ti MOL
244 1 8 0.000000 19.629999 4.359000 6.450000 # Ti MOL
245 1 8 0.000000 21.139999 3.487000 0.000000 # Ti MOL
246 1 1 0.000000 21.139999 3.487000 4.837000 # C MOL
247 1 5 0.000000 19.629999 4.359000 1.613000 # N MOL
248 1 8 0.000000 18.120001 5.231000 3.225000 # Ti MOL
249 1 8 0.000000 18.120001 6.974000 6.450000 # Ti MOL
250 1 8 0.000000 19.629999 6.103000 0.000000 # Ti MOL
251 1 1 0.000000 19.629999 6.103000 4.837000 # C MOL
252 1 5 0.000000 18.120001 6.974000 1.613000 # N MOL
253 1 8 0.000000 16.610001 7.846000 3.225000 # Ti MOL
254 1 8 0.000000 16.610001 9.590000 6.450000 # Ti MOL
255 1 8 0.000000 18.120001 8.718000 0.000000 # Ti MOL
256 1 1 0.000000 18.120001 8.718000 4.837000 # C MOL
257 1 5 0.000000 16.610001 9.590000 1.613000 # N MOL
258 1 8 0.000000 15.100000 10.462000 3.225000 # Ti MOL
259 1 8 0.000000 15.100000 12.205000 6.450000 # Ti MOL
260 1 8 0.000000 16.610001 11.333000 0.000000 # Ti MOL
261 1 1 0.000000 16.610001 11.333000 4.837000 # C MOL
262 1 5 0.000000 15.100000 12.205000 1.613000 # N MOL
263 1 8 0.000000 13.590000 13.077000 3.225000 # Ti MOL
264 1 8 0.000000 13.590000 14.821000 6.450000 # Ti MOL
265 1 8 0.000000 15.100000 13.949000 0.000000 # Ti MOL
266 1 1 0.000000 15.100000 13.949000 4.837000 # C MOL
267 1 5 0.000000 13.590000 14.821000 1.613000 # N MOL
268 1 8 0.000000 12.080000 15.692000 3.225000 # Ti MOL
269 1 8 0.000000 12.080000 17.436001 6.450000 # Ti MOL
270 1 8 0.000000 13.590000 16.563999 0.000000 # Ti MOL
271 1 1 0.000000 13.590000 16.563999 4.837000 # C MOL
272 1 5 0.000000 12.080000 17.436001 1.613000 # N MOL
273 1 7 0.000000 13.185000 15.747000 22.256001 # OW 1
274 1 4 0.000000 12.314000 16.125000 22.378000 # HW 1
275 1 4 0.000000 13.860000 16.416000 22.370001 # HW 1
276 2 7 0.000000 1.303000 2.778000 13.951000 # OW 1
277 2 4 0.000000 2.179000 2.442000 14.144000 # HW 1
278 2 4 0.000000 1.112000 2.697000 13.017000 # HW 1
279 3 7 0.000000 11.218000 15.252000 13.211000 # OW 1
280 3 4 0.000000 11.037000 16.173000 13.022000 # HW 1
281 3 4 0.000000 10.535000 14.693000 12.842000 # HW 1
282 4 7 0.000000 15.181000 12.592000 17.705000 # OW 1
283 4 4 0.000000 14.927000 11.929000 17.063000 # HW 1
284 4 4 0.000000 15.901000 12.273000 18.249001 # HW 1
285 5 7 0.000000 2.487000 1.848000 16.896999 # OW 1
286 5 4 0.000000 1.995000 1.030000 16.959000 # HW 1
287 5 4 0.000000 1.895000 2.584000 16.743000 # HW 1
288 6 7 0.000000 7.176000 1.750000 14.350000 # OW 1
289 6 4 0.000000 8.040000 2.095000 14.573000 # HW 1
290 6 4 0.000000 6.557000 2.465000 14.202000 # HW 1
291 7 7 0.000000 16.827000 13.850000 19.495001 # OW 1
292 7 4 0.000000 17.180000 14.225000 18.688000 # HW 1
293 7 4 0.000000 17.466000 13.262000 19.898001 # HW 1
294 8 7 0.000000 18.225000 15.759000 14.949000 # OW 1
295 8 4 0.000000 18.981001 15.434000 15.438000 # HW 1
296 8 4 0.000000 17.556999 15.078000 14.875000 # HW 1
297 9 7 0.000000 13.822000 0.561000 11.066000 # OW 1
298 9 4 0.000000 12.924000 0.286000 10.879000 # HW 1
299 9 4 0.000000 14.296000 0.733000 10.252000 # HW 1
300 10 7 0.000000 23.472000 6.862000 13.183000 # OW 1
301 10 4 0.000000 24.165001 6.409000 12.702000 # HW 1
302 10 4 0.000000 22.628000 6.739000 12.748000 # HW 1
303 11 7 0.000000 2.768000 9.100000 11.416000 # OW 1
304 11 4 0.000000 2.825000 8.888000 10.485000 # HW 1
305 11 4 0.000000 1.854000 9.212000 11.678000 # HW 1
306 12 7 0.000000 5.127000 13.476000 8.643000 # OW 1
307 12 4 0.000000 4.231000 13.811000 8.640000 # HW 1
308 12 4 0.000000 5.133000 12.533000 8.484000 # HW 1
309 13 7 0.000000 9.130000 9.853000 13.782000 # OW 1
310 13 4 0.000000 8.183000 9.782000 13.903000 # HW 1
311 13 4 0.000000 9.332000 10.483000 13.091000 # HW 1
312 14 7 0.000000 5.459000 -0.008000 15.355000 # OW 1
313 14 4 0.000000 5.265000 0.729000 14.776000 # HW 1
314 14 4 0.000000 6.344000 0.071000 15.711000 # HW 1
315 15 7 0.000000 7.802000 11.825000 8.648000 # OW 1
316 15 4 0.000000 7.092000 11.194000 8.765000 # HW 1
317 15 4 0.000000 7.545000 12.507000 8.027000 # HW 1
318 16 7 0.000000 10.657000 15.682000 20.330999 # OW 1
319 16 4 0.000000 11.187000 15.096000 19.790001 # HW 1
320 16 4 0.000000 11.102000 16.521000 20.452000 # HW 1
321 17 7 0.000000 10.428000 0.960000 14.638000 # OW 1
322 17 4 0.000000 10.218000 1.014000 13.706000 # HW 1
323 17 4 0.000000 10.507000 0.046000 14.911000 # HW 1
324 18 7 0.000000 9.303000 5.111000 16.990999 # OW 1
325 18 4 0.000000 9.422000 4.347000 16.427999 # HW 1
326 18 4 0.000000 9.244000 4.845000 17.909000 # HW 1
327 19 7 0.000000 13.024000 12.535000 23.198999 # OW 1
328 19 4 0.000000 13.157000 11.797000 22.604000 # HW 1
329 19 4 0.000000 12.963000 13.354000 22.707001 # HW 1
330 20 7 0.000000 17.698000 10.338000 17.690001 # OW 1
331 20 4 0.000000 16.870001 9.893000 17.511000 # HW 1
332 20 4 0.000000 17.684000 10.736000 18.559999 # HW 1
333 21 7 0.000000 23.082001 11.344000 13.876000 # OW 1
334 21 4 0.000000 23.386000 11.792000 14.665000 # HW 1
335 21 4 0.000000 22.867001 11.978000 13.193000 # HW 1
336 22 7 0.000000 23.621000 10.557000 10.928000 # OW 1
337 22 4 0.000000 22.704000 10.739000 11.130000 # HW 1
338 22 4 0.000000 24.160999 10.649000 11.713000 # HW 1
339 23 7 0.000000 8.089000 17.099001 8.435000 # OW 1
340 23 4 0.000000 8.197000 17.441000 9.323000 # HW 1
341 23 4 0.000000 7.278000 16.594999 8.367000 # HW 1
342 24 7 0.000000 0.918000 2.252000 20.635000 # OW 1
343 24 4 0.000000 1.236000 1.814000 19.844999 # HW 1
344 24 4 0.000000 0.678000 1.607000 21.299999 # HW 1
345 25 7 0.000000 3.971000 15.623000 17.150000 # OW 1
346 25 4 0.000000 4.272000 16.319000 17.733000 # HW 1
347 25 4 0.000000 3.580000 14.909000 17.653999 # HW 1
348 26 7 0.000000 5.473000 10.443000 15.692000 # OW 1
349 26 4 0.000000 6.395000 10.561000 15.463000 # HW 1
350 26 4 0.000000 4.910000 10.842000 15.029000 # HW 1
351 27 7 0.000000 19.400999 4.052000 16.583000 # OW 1
352 27 4 0.000000 18.541000 3.637000 16.523001 # HW 1
353 27 4 0.000000 19.312000 5.005000 16.596001 # HW 1
354 28 7 0.000000 6.377000 10.731000 19.311001 # OW 1
355 28 4 0.000000 7.213000 10.301000 19.134001 # HW 1
356 28 4 0.000000 5.760000 10.113000 19.705000 # HW 1
357 29 7 0.000000 13.715000 17.445999 19.068001 # OW 1
358 29 4 0.000000 13.105000 16.948000 18.525000 # HW 1
359 29 4 0.000000 13.433000 17.437000 19.983000 # HW 1
360 30 7 0.000000 17.128000 5.467000 16.836000 # OW 1
361 30 4 0.000000 16.389000 5.258000 16.264999 # HW 1
362 30 4 0.000000 17.066000 6.370000 17.146999 # HW 1
363 31 7 0.000000 15.137000 2.734000 9.850000 # OW 1
364 31 4 0.000000 15.316000 3.025000 8.956000 # HW 1
365 31 4 0.000000 15.955000 2.628000 10.338000 # HW 1
366 32 7 0.000000 14.592000 4.277000 17.388000 # OW 1
367 32 4 0.000000 14.187000 3.668000 18.006001 # HW 1
368 32 4 0.000000 14.062000 5.069000 17.302000 # HW 1
369 33 7 0.000000 7.910000 4.879000 14.815000 # OW 1
370 33 4 0.000000 7.954000 4.232000 14.111000 # HW 1
371 33 4 0.000000 7.336000 4.572000 15.517000 # HW 1
372 34 7 0.000000 2.786000 5.976000 14.731000 # OW 1
373 34 4 0.000000 3.084000 5.327000 15.368000 # HW 1
374 34 4 0.000000 2.775000 6.849000 15.123000 # HW 1
375 35 7 0.000000 23.436001 3.594000 16.667000 # OW 1
376 35 4 0.000000 22.500000 3.447000 16.802999 # HW 1
377 35 4 0.000000 23.907000 2.761000 16.648001 # HW 1
378 36 7 0.000000 9.126000 7.453000 22.552999 # OW 1
379 36 4 0.000000 8.801000 7.201000 23.417000 # HW 1
380 36 4 0.000000 8.675000 8.237000 22.240999 # HW 1
381 37 7 0.000000 20.150000 6.759000 14.472000 # OW 1
382 37 4 0.000000 19.421000 6.307000 14.896000 # HW 1
383 37 4 0.000000 20.905001 6.801000 15.059000 # HW 1
384 38 7 0.000000 13.995000 14.299000 15.928000 # OW 1
385 38 4 0.000000 13.697000 13.397000 15.805000 # HW 1
386 38 4 0.000000 14.053000 14.508000 16.860001 # HW 1
387 39 7 0.000000 8.009000 7.062000 14.119000 # OW 1
388 39 4 0.000000 8.229000 7.739000 14.759000 # HW 1
389 39 4 0.000000 7.059000 6.980000 14.033000 # HW 1
390 40 7 0.000000 2.312000 15.650000 8.598000 # OW 1
391 40 4 0.000000 2.172000 14.705000 8.547000 # HW 1
392 40 4 0.000000 3.242000 15.856000 8.507000 # HW 1
393 41 7 0.000000 15.553000 1.831000 20.452999 # OW 1
394 41 4 0.000000 15.746000 0.933000 20.184000 # HW 1
395 41 4 0.000000 14.970000 1.835000 21.212000 # HW 1
396 42 7 0.000000 0.802000 7.874000 17.214001 # OW 1
397 42 4 0.000000 1.590000 7.842000 17.754999 # HW 1
398 42 4 0.000000 0.922000 7.358000 16.416000 # HW 1
399 43 7 0.000000 10.393000 6.516000 11.215000 # OW 1
400 43 4 0.000000 9.793000 5.956000 10.723000 # HW 1
401 43 4 0.000000 9.965000 6.856000 12.001000 # HW 1
402 44 7 0.000000 14.773000 8.256000 17.652000 # OW 1
403 44 4 0.000000 14.710000 9.043000 17.112000 # HW 1
404 44 4 0.000000 15.689000 8.018000 17.791000 # HW 1
405 45 7 0.000000 15.069000 14.759000 13.977000 # OW 1
406 45 4 0.000000 15.392000 15.658000 14.037000 # HW 1
407 45 4 0.000000 15.792000 14.154000 13.809000 # HW 1
408 46 7 0.000000 7.677000 5.394000 12.134000 # OW 1
409 46 4 0.000000 7.113000 4.783000 11.660000 # HW 1
410 46 4 0.000000 7.752000 6.220000 11.655000 # HW 1
411 47 7 0.000000 4.086000 10.778000 11.953000 # OW 1
412 47 4 0.000000 3.577000 11.565000 12.149000 # HW 1
413 47 4 0.000000 4.757000 10.967000 11.298000 # HW 1
414 48 7 0.000000 3.499000 12.265000 20.466000 # OW 1
415 48 4 0.000000 4.112000 12.205000 21.198000 # HW 1
416 48 4 0.000000 3.930000 12.021000 19.646999 # HW 1
417 49 7 0.000000 9.915000 15.483000 9.975000 # OW 1
418 49 4 0.000000 10.235000 15.626000 10.865000 # HW 1
419 49 4 0.000000 9.496000 14.626000 9.904000 # HW 1
420 50 7 0.000000 16.386000 3.400000 18.268999 # OW 1
421 50 4 0.000000 17.292999 3.700000 18.333000 # HW 1
422 50 4 0.000000 16.347000 2.444000 18.295000 # HW 1
423 51 7 0.000000 21.003000 12.687000 17.297001 # OW 1
424 51 4 0.000000 21.507999 12.819000 18.099001 # HW 1
425 51 4 0.000000 21.212999 11.839000 16.905001 # HW 1
426 52 7 0.000000 5.570000 16.860001 11.293000 # OW 1
427 52 4 0.000000 5.325000 17.165001 10.420000 # HW 1
428 52 4 0.000000 5.401000 15.922000 11.379000 # HW 1
429 53 7 0.000000 24.160000 7.590000 10.214000 # OW 1
430 53 4 0.000000 23.524000 6.879000 10.285000 # HW 1
431 53 4 0.000000 23.721001 8.439000 10.265000 # HW 1
432 54 7 0.000000 13.298000 8.258000 9.068000 # OW 1
433 54 4 0.000000 13.718000 7.791000 9.790000 # HW 1
434 54 4 0.000000 12.363000 8.058000 9.038000 # HW 1
435 55 7 0.000000 11.545000 13.765000 9.813000 # OW 1
436 55 4 0.000000 12.129000 14.012000 10.530000 # HW 1
437 55 4 0.000000 11.754000 12.884000 9.500000 # HW 1
438 56 7 0.000000 4.778000 7.973000 15.500000 # OW 1
439 56 4 0.000000 5.734000 7.988000 15.475000 # HW 1
440 56 4 0.000000 4.416000 8.490000 14.781000 # HW 1
441 57 7 0.000000 17.728001 0.615000 21.097000 # OW 1
442 57 4 0.000000 18.304001 0.002000 21.552999 # HW 1
443 57 4 0.000000 18.077000 1.505000 21.150000 # HW 1
444 58 7 0.000000 17.605000 -0.009000 10.510000 # OW 1
445 58 4 0.000000 16.655001 0.062000 10.597000 # HW 1
446 58 4 0.000000 18.030001 0.792000 10.817000 # HW 1
447 59 7 0.000000 21.146000 9.304000 9.223000 # OW 1
448 59 4 0.000000 20.771000 9.718000 10.000000 # HW 1
449 59 4 0.000000 20.458000 8.901000 8.693000 # HW 1
450 60 7 0.000000 21.903000 4.834000 11.139000 # OW 1
451 60 4 0.000000 21.816999 4.919000 10.190000 # HW 1
452 60 4 0.000000 22.826000 4.789000 11.389000 # HW 1
453 61 7 0.000000 17.077000 6.263000 20.103001 # OW 1
454 61 4 0.000000 17.680000 5.904000 19.452999 # HW 1
455 61 4 0.000000 16.660000 7.058000 19.770000 # HW 1
456 62 7 0.000000 22.170000 14.457000 13.421000 # OW 1
457 62 4 0.000000 23.106001 14.258000 13.381000 # HW 1
458 62 4 0.000000 21.670000 13.814000 12.919000 # HW 1
459 63 7 0.000000 9.348000 9.175000 19.812000 # OW 1
460 63 4 0.000000 9.873000 8.643000 20.409000 # HW 1
461 63 4 0.000000 9.577000 8.982000 18.903000 # HW 1
462 64 7 0.000000 15.988000 14.377000 22.315001 # OW 1
463 64 4 0.000000 15.484000 14.829000 22.990999 # HW 1
464 64 4 0.000000 16.926001 14.456000 22.488001 # HW 1
465 65 7 0.000000 17.433001 16.750000 17.141001 # OW 1
466 65 4 0.000000 17.811001 17.437000 16.591999 # HW 1
467 65 4 0.000000 16.556999 16.520000 16.833000 # HW 1
468 66 7 0.000000 15.386000 3.450000 14.475000 # OW 1
469 66 4 0.000000 15.780000 4.194000 14.019000 # HW 1
470 66 4 0.000000 15.763000 3.358000 15.350000 # HW 1
471 67 7 0.000000 6.306000 13.044000 10.511000 # OW 1
472 67 4 0.000000 6.532000 12.129000 10.679000 # HW 1
473 67 4 0.000000 6.930000 13.436000 9.901000 # HW 1
474 68 7 0.000000 4.277000 17.368000 21.539000 # OW 1
475 68 4 0.000000 4.087000 16.577999 22.045000 # HW 1
476 68 4 0.000000 5.215000 17.434999 21.363001 # HW 1
477 69 7 0.000000 2.361000 15.683000 19.924999 # OW 1
478 69 4 0.000000 3.313000 15.589000 19.937000 # HW 1
479 69 4 0.000000 2.112000 16.594999 20.077999 # HW 1
480 70 7 0.000000 2.271000 0.724000 12.216000 # OW 1
481 70 4 0.000000 1.713000 0.034000 12.574000 # HW 1
482 70 4 0.000000 3.189000 0.556000 12.427000 # HW 1
483 71 7 0.000000 21.158001 17.441000 15.260000 # OW 1
484 71 4 0.000000 21.393000 16.747000 14.644000 # HW 1
485 71 4 0.000000 20.229000 17.386999 15.485000 # HW 1
486 72 7 0.000000 5.932000 5.119000 19.420000 # OW 1
487 72 4 0.000000 5.057000 5.459000 19.237000 # HW 1
488 72 4 0.000000 6.022000 4.227000 19.084000 # HW 1
489 73 7 0.000000 8.781000 15.437000 22.687000 # OW 1
490 73 4 0.000000 9.352000 15.523000 23.451000 # HW 1
491 73 4 0.000000 8.280000 14.623000 22.733000 # HW 1
492 74 7 0.000000 6.750000 8.121000 18.327999 # OW 1
493 74 4 0.000000 5.854000 7.892000 18.082001 # HW 1
494 74 4 0.000000 6.908000 7.914000 19.249001 # HW 1
495 75 7 0.000000 20.409000 7.943000 22.559999 # OW 1
496 75 4 0.000000 20.183001 8.453000 21.782000 # HW 1
497 75 4 0.000000 19.632000 7.513000 22.916000 # HW 1
498 76 7 0.000000 14.031000 3.478000 23.077000 # OW 1
499 76 4 0.000000 13.898000 4.261000 22.542999 # HW 1
500 76 4 0.000000 13.209000 2.998000 23.177000 # HW 1
501 77 7 0.000000 11.089000 8.099000 16.811001 # OW 1
502 77 4 0.000000 11.327000 8.659000 17.549000 # HW 1
503 77 4 0.000000 10.155000 7.888000 16.837999 # HW 1
504 78 7 0.000000 3.494000 14.336000 13.251000 # OW 1
505 78 4 0.000000 3.638000 13.920000 14.100000 # HW 1
506 78 4 0.000000 4.205000 14.945000 13.051000 # HW 1
507 79 7 0.000000 20.488001 8.875000 12.413000 # OW 1
508 79 4 0.000000 21.308001 8.788000 11.927000 # HW 1
509 79 4 0.000000 20.153999 8.013000 12.662000 # HW 1
510 80 7 0.000000 4.689000 2.496000 19.337999 # OW 1
511 80 4 0.000000 3.816000 2.244000 19.639000 # HW 1
512 80 4 0.000000 5.202000 1.720000 19.113001 # HW 1
513 81 7 0.000000 22.351000 1.227000 12.025000 # OW 1
514 81 4 0.000000 23.113001 1.715000 11.713000 # HW 1
515 81 4 0.000000 21.629999 1.824000 12.225000 # HW 1
516 82 7 0.000000 12.263000 10.398000 10.353000 # OW 1
517 82 4 0.000000 13.095000 10.598000 9.923000 # HW 1
518 82 4 0.000000 11.970000 11.143000 10.878000 # HW 1
519 83 7 0.000000 9.499000 2.760000 12.062000 # OW 1
520 83 4 0.000000 8.637000 2.392000 12.255000 # HW 1
521 83 4 0.000000 9.416000 3.655000 11.734000 # HW 1
522 84 7 0.000000 12.815000 10.124000 16.766001 # OW 1
523 84 4 0.000000 12.796000 9.459000 16.077999 # HW 1
524 84 4 0.000000 13.058000 10.975000 16.400999 # HW 1
525 85 7 0.000000 22.618999 4.506000 18.903999 # OW 1
526 85 4 0.000000 23.334000 5.076000 19.184000 # HW 1
527 85 4 0.000000 22.847000 3.587000 19.046000 # HW 1
528 86 7 0.000000 8.266000 17.461000 13.038000 # OW 1
529 86 4 0.000000 7.907000 16.677999 12.622000 # HW 1
530 86 4 0.000000 9.221000 17.409000 13.083000 # HW 1
531 87 7 0.000000 19.313000 4.190000 10.175000 # OW 1
532 87 4 0.000000 20.055000 3.585000 10.181000 # HW 1
533 87 4 0.000000 19.618999 5.094000 10.252000 # HW 1
534 88 7 0.000000 14.825000 3.025000 12.181000 # OW 1
535 88 4 0.000000 14.503000 3.926000 12.157000 # HW 1
536 88 4 0.000000 14.094000 2.410000 12.233000 # HW 1
537 89 7 0.000000 19.106001 13.212000 13.712000 # OW 1
538 89 4 0.000000 19.169001 14.154000 13.553000 # HW 1
539 89 4 0.000000 18.291000 13.004000 14.168000 # HW 1
540 90 7 0.000000 2.105000 3.889000 21.544001 # OW 1
541 90 4 0.000000 1.670000 4.740000 21.580000 # HW 1
542 90 4 0.000000 2.274000 3.561000 22.427000 # HW 1
543 91 7 0.000000 3.309000 16.809000 13.844000 # OW 1
544 91 4 0.000000 2.457000 17.233000 13.745000 # HW 1
545 91 4 0.000000 3.992000 17.462999 13.998000 # HW 1
546 92 7 0.000000 14.135000 12.443000 10.816000 # OW 1
547 92 4 0.000000 14.522000 13.319000 10.804000 # HW 1