LAMMPS data file. CGCMM style. atom_style full generated by VMD/TopoTools v1.8 on Thu Nov 02 16:30:17 +0330 2023
 4960 atoms
 2606 bonds
 1410 angles
 99 dihedrals
 2 impropers
 8 atom types
 1 bond types
 8 angle types
 7 dihedral types
 1 improper types
 -0.050000 30.168000  xlo xhi
 0.011001 25.349000  ylo yhi
 -73.35000 73.350000  zlo zhi

# Pair Coeffs
#
# 1  C
# 2  Ca
# 3  Cl
# 4  H
# 5  N
# 6  Na
# 7  O
# 8  Ti

# Bond Coeffs
#
# 1  

# Angle Coeffs
#
# 1  Cl-Cl-Cl
# 2  Cl-Cl-O
# 3  Cl-O-Cl
# 4  Cl-O-H
# 5  H-O-H
# 6  H-O-Ti
# 7  O-Cl-O
# 8  O-Cl-Ti

# Dihedral Coeffs
#
# 1  Cl-Cl-Cl-Cl
# 2  Cl-Cl-Cl-O
# 3  Cl-Cl-O-H
# 4  O-Cl-Cl-O
# 5  O-Cl-O-Cl
# 6  O-Cl-O-H
# 7  Ti-Cl-O-H

# Improper Coeffs
#
# 1  O-Cl-H-H

 Masses

 1 12.010700 # C
 2 40.077999 # Ca
 3 35.452999 # Cl
 4 1.007940 # H
 5 14.006700 # N
 6 22.989771 # Na
 7 15.999400 # O
 8 47.867001 # Ti

 Atoms # full

1 1 8 0.000000 0.000000 0.000000 9.675000 # Ti MOL
2 1 5 0.000000 1.510000 0.872000 11.287000 # N MOL
3 1 1 0.000000 30.200001 1.744000 8.063000 # C MOL
4 1 8 0.000000 30.200001 1.744000 12.900000 # Ti MOL
5 1 8 0.000000 1.510000 0.872000 6.450000 # Ti MOL
6 1 8 0.000000 28.690001 2.615000 9.675000 # Ti MOL
7 1 5 0.000000 0.000000 3.487000 11.287000 # N MOL
8 1 1 0.000000 28.690001 4.359000 8.063000 # C MOL
9 1 8 0.000000 28.690001 4.359000 12.900000 # Ti MOL
10 1 8 0.000000 0.000000 3.487000 6.450000 # Ti MOL
11 1 8 0.000000 27.180000 5.231000 9.675000 # Ti MOL
12 1 5 0.000000 28.690001 6.103000 11.287000 # N MOL
13 1 1 0.000000 27.180000 6.974000 8.063000 # C MOL
14 1 8 0.000000 27.180000 6.974000 12.900000 # Ti MOL
15 1 8 0.000000 28.690001 6.103000 6.450000 # Ti MOL
16 1 8 0.000000 25.670000 7.846000 9.675000 # Ti MOL
17 1 5 0.000000 27.180000 8.718000 11.287000 # N MOL
18 1 1 0.000000 25.670000 9.590000 8.063000 # C MOL
19 1 8 0.000000 25.670000 9.590000 12.900000 # Ti MOL
20 1 8 0.000000 27.180000 8.718000 6.450000 # Ti MOL
21 1 8 0.000000 24.160000 10.462000 9.675000 # Ti MOL
22 1 5 0.000000 25.670000 11.333000 11.287000 # N MOL
23 1 1 0.000000 24.160000 12.205000 8.063000 # C MOL
24 1 8 0.000000 24.160000 12.205000 12.900000 # Ti MOL
25 1 8 0.000000 25.670000 11.333000 6.450000 # Ti MOL
26 1 8 0.000000 22.650000 13.077000 9.675000 # Ti MOL
27 1 5 0.000000 24.160000 13.949000 11.287000 # N MOL
28 1 1 0.000000 22.650000 14.821000 8.063000 # C MOL
29 1 8 0.000000 22.650000 14.821000 12.900000 # Ti MOL
30 1 8 0.000000 24.160000 13.949000 6.450000 # Ti MOL
31 1 8 0.000000 21.139999 15.692000 9.675000 # Ti MOL
32 1 5 0.000000 22.650000 16.563999 11.287000 # N MOL
33 1 1 0.000000 21.139999 17.436001 8.063000 # C MOL
34 1 8 0.000000 21.139999 17.436001 12.900000 # Ti MOL
35 1 8 0.000000 22.650000 16.563999 6.450000 # Ti MOL
36 1 8 0.000000 19.629999 18.308001 9.675000 # Ti MOL
37 1 5 0.000000 21.139999 19.180000 11.287000 # N MOL
38 1 1 0.000000 19.629999 20.051001 8.063000 # C MOL
39 1 8 0.000000 19.629999 20.051001 12.900000 # Ti MOL
40 1 8 0.000000 21.139999 19.180000 6.450000 # Ti MOL
41 1 8 0.000000 18.120001 20.923000 9.675000 # Ti MOL
42 1 5 0.000000 19.629999 21.795000 11.287000 # N MOL
43 1 1 0.000000 18.120001 22.667000 8.063000 # C MOL
44 1 8 0.000000 18.120001 22.667000 12.900000 # Ti MOL
45 1 8 0.000000 19.629999 21.795000 6.450000 # Ti MOL
46 1 8 0.000000 16.610001 23.539000 9.675000 # Ti MOL
47 1 5 0.000000 18.120001 24.410000 11.287000 # N MOL
48 1 1 0.000000 16.610001 25.282000 8.063000 # C MOL
49 1 8 0.000000 16.610001 25.282000 12.900000 # Ti MOL
50 1 8 0.000000 18.120001 24.410000 6.450000 # Ti MOL
51 1 8 0.000000 3.020000 0.000000 9.675000 # Ti MOL
52 1 5 0.000000 4.530000 0.872000 11.287000 # N MOL
53 1 1 0.000000 3.020000 1.744000 8.063000 # C MOL
54 1 8 0.000000 3.020000 1.744000 12.900000 # Ti MOL
55 1 8 0.000000 4.530000 0.872000 6.450000 # Ti MOL
56 1 8 0.000000 1.510000 2.615000 9.675000 # Ti MOL
57 1 5 0.000000 3.020000 3.487000 11.287000 # N MOL
58 1 1 0.000000 1.510000 4.359000 8.063000 # C MOL
59 1 8 0.000000 1.510000 4.359000 12.900000 # Ti MOL
60 1 8 0.000000 3.020000 3.487000 6.450000 # Ti MOL
61 1 8 0.000000 0.000000 5.231000 9.675000 # Ti MOL
62 1 5 0.000000 1.510000 6.103000 11.287000 # N MOL
63 1 1 0.000000 30.200001 6.974000 8.063000 # C MOL
64 1 8 0.000000 30.200001 6.974000 12.900000 # Ti MOL
65 1 8 0.000000 1.510000 6.103000 6.450000 # Ti MOL
66 1 8 0.000000 28.690001 7.846000 9.675000 # Ti MOL
67 1 5 0.000000 0.000000 8.718000 11.287000 # N MOL
68 1 1 0.000000 28.690001 9.590000 8.063000 # C MOL
69 1 8 0.000000 28.690001 9.590000 12.900000 # Ti MOL
70 1 8 0.000000 0.000000 8.718000 6.450000 # Ti MOL
71 1 8 0.000000 27.180000 10.462000 9.675000 # Ti MOL
72 1 5 0.000000 28.690001 11.333000 11.287000 # N MOL
73 1 1 0.000000 27.180000 12.205000 8.063000 # C MOL
74 1 8 0.000000 27.180000 12.205000 12.900000 # Ti MOL
75 1 8 0.000000 28.690001 11.333000 6.450000 # Ti MOL
76 1 8 0.000000 25.670000 13.077000 9.675000 # Ti MOL
77 1 5 0.000000 27.180000 13.949000 11.287000 # N MOL
78 1 1 0.000000 25.670000 14.821000 8.063000 # C MOL
79 1 8 0.000000 25.670000 14.821000 12.900000 # Ti MOL
80 1 8 0.000000 27.180000 13.949000 6.450000 # Ti MOL
81 1 8 0.000000 24.160000 15.692000 9.675000 # Ti MOL
82 1 5 0.000000 25.670000 16.563999 11.287000 # N MOL
83 1 1 0.000000 24.160000 17.436001 8.063000 # C MOL
84 1 8 0.000000 24.160000 17.436001 12.900000 # Ti MOL
85 1 8 0.000000 25.670000 16.563999 6.450000 # Ti MOL
86 1 8 0.000000 22.650000 18.308001 9.675000 # Ti MOL
87 1 5 0.000000 24.160000 19.180000 11.287000 # N MOL
88 1 1 0.000000 22.650000 20.051001 8.063000 # C MOL
89 1 8 0.000000 22.650000 20.051001 12.900000 # Ti MOL
90 1 8 0.000000 24.160000 19.180000 6.450000 # Ti MOL
91 1 8 0.000000 21.139999 20.923000 9.675000 # Ti MOL
92 1 5 0.000000 22.650000 21.795000 11.287000 # N MOL
93 1 1 0.000000 21.139999 22.667000 8.063000 # C MOL
94 1 8 0.000000 21.139999 22.667000 12.900000 # Ti MOL
95 1 8 0.000000 22.650000 21.795000 6.450000 # Ti MOL
96 1 8 0.000000 19.629999 23.539000 9.675000 # Ti MOL
97 1 5 0.000000 21.139999 24.410000 11.287000 # N MOL
98 1 1 0.000000 19.629999 25.282000 8.063000 # C MOL
99 1 8 0.000000 19.629999 25.282000 12.900000 # Ti MOL
100 1 8 0.000000 21.139999 24.410000 6.450000 # Ti MOL
101 1 8 0.000000 6.040000 0.000000 9.675000 # Ti MOL
102 1 5 0.000000 7.550000 0.872000 11.287000 # N MOL
103 1 1 0.000000 6.040000 1.744000 8.063000 # C MOL
104 1 8 0.000000 6.040000 1.744000 12.900000 # Ti MOL
105 1 8 0.000000 7.550000 0.872000 6.450000 # Ti MOL
106 1 8 0.000000 4.530000 2.615000 9.675000 # Ti MOL
107 1 5 0.000000 6.040000 3.487000 11.287000 # N MOL
108 1 1 0.000000 4.530000 4.359000 8.063000 # C MOL
109 1 8 0.000000 4.530000 4.359000 12.900000 # Ti MOL
110 1 8 0.000000 6.040000 3.487000 6.450000 # Ti MOL
111 1 8 0.000000 3.020000 5.231000 9.675000 # Ti MOL
112 1 5 0.000000 4.530000 6.103000 11.287000 # N MOL
113 1 1 0.000000 3.020000 6.974000 8.063000 # C MOL
114 1 8 0.000000 3.020000 6.974000 12.900000 # Ti MOL
115 1 8 0.000000 4.530000 6.103000 6.450000 # Ti MOL
116 1 8 0.000000 1.510000 7.846000 9.675000 # Ti MOL
117 1 5 0.000000 3.020000 8.718000 11.287000 # N MOL
118 1 1 0.000000 1.510000 9.590000 8.063000 # C MOL
119 1 8 0.000000 1.510000 9.590000 12.900000 # Ti MOL
120 1 8 0.000000 3.020000 8.718000 6.450000 # Ti MOL
121 1 8 0.000000 0.000000 10.462000 9.675000 # Ti MOL
122 1 5 0.000000 1.510000 11.333000 11.287000 # N MOL
123 1 1 0.000000 30.200001 12.205000 8.063000 # C MOL
124 1 8 0.000000 30.200001 12.205000 12.900000 # Ti MOL
125 1 8 0.000000 1.510000 11.333000 6.450000 # Ti MOL
126 1 8 0.000000 28.690001 13.077000 9.675000 # Ti MOL
127 1 5 0.000000 0.000000 13.949000 11.287000 # N MOL
128 1 1 0.000000 28.690001 14.821000 8.063000 # C MOL
129 1 8 0.000000 28.690001 14.821000 12.900000 # Ti MOL
130 1 8 0.000000 0.000000 13.949000 6.450000 # Ti MOL
131 1 8 0.000000 27.180000 15.692000 9.675000 # Ti MOL
132 1 5 0.000000 28.690001 16.563999 11.287000 # N MOL
133 1 1 0.000000 27.180000 17.436001 8.063000 # C MOL
134 1 8 0.000000 27.180000 17.436001 12.900000 # Ti MOL
135 1 8 0.000000 28.690001 16.563999 6.450000 # Ti MOL
136 1 8 0.000000 25.670000 18.308001 9.675000 # Ti MOL
137 1 5 0.000000 27.180000 19.180000 11.287000 # N MOL
138 1 1 0.000000 25.670000 20.051001 8.063000 # C MOL
139 1 8 0.000000 25.670000 20.051001 12.900000 # Ti MOL
140 1 8 0.000000 27.180000 19.180000 6.450000 # Ti MOL
141 1 8 0.000000 24.160000 20.923000 9.675000 # Ti MOL
142 1 5 0.000000 25.670000 21.795000 11.287000 # N MOL
143 1 1 0.000000 24.160000 22.667000 8.063000 # C MOL
144 1 8 0.000000 24.160000 22.667000 12.900000 # Ti MOL
145 1 8 0.000000 25.670000 21.795000 6.450000 # Ti MOL
146 1 8 0.000000 22.650000 23.539000 9.675000 # Ti MOL
147 1 5 0.000000 24.160000 24.410000 11.287000 # N MOL
148 1 1 0.000000 22.650000 25.282000 8.063000 # C MOL
149 1 8 0.000000 22.650000 25.282000 12.900000 # Ti MOL
150 1 8 0.000000 24.160000 24.410000 6.450000 # Ti MOL
151 1 8 0.000000 9.060000 0.000000 9.675000 # Ti MOL
152 1 5 0.000000 10.570000 0.872000 11.287000 # N MOL
153 1 1 0.000000 9.060000 1.744000 8.063000 # C MOL
154 1 8 0.000000 9.060000 1.744000 12.900000 # Ti MOL
155 1 8 0.000000 10.570000 0.872000 6.450000 # Ti MOL
156 1 8 0.000000 7.550000 2.615000 9.675000 # Ti MOL
157 1 5 0.000000 9.060000 3.487000 11.287000 # N MOL
158 1 1 0.000000 7.550000 4.359000 8.063000 # C MOL
159 1 8 0.000000 7.550000 4.359000 12.900000 # Ti MOL
160 1 8 0.000000 9.060000 3.487000 6.450000 # Ti MOL
161 1 8 0.000000 6.040000 5.231000 9.675000 # Ti MOL
162 1 5 0.000000 7.550000 6.103000 11.287000 # N MOL
163 1 1 0.000000 6.040000 6.974000 8.063000 # C MOL
164 1 8 0.000000 6.040000 6.974000 12.900000 # Ti MOL
165 1 8 0.000000 7.550000 6.103000 6.450000 # Ti MOL
166 1 8 0.000000 4.530000 7.846000 9.675000 # Ti MOL
167 1 5 0.000000 6.040000 8.718000 11.287000 # N MOL
168 1 1 0.000000 4.530000 9.590000 8.063000 # C MOL
169 1 8 0.000000 4.530000 9.590000 12.900000 # Ti MOL
170 1 8 0.000000 6.040000 8.718000 6.450000 # Ti MOL
171 1 8 0.000000 3.020000 10.462000 9.675000 # Ti MOL
172 1 5 0.000000 4.530000 11.333000 11.287000 # N MOL
173 1 1 0.000000 3.020000 12.205000 8.063000 # C MOL
174 1 8 0.000000 3.020000 12.205000 12.900000 # Ti MOL
175 1 8 0.000000 4.530000 11.333000 6.450000 # Ti MOL
176 1 8 0.000000 1.510000 13.077000 9.675000 # Ti MOL
177 1 5 0.000000 3.020000 13.949000 11.287000 # N MOL
178 1 1 0.000000 1.510000 14.821000 8.063000 # C MOL
179 1 8 0.000000 1.510000 14.821000 12.900000 # Ti MOL
180 1 8 0.000000 3.020000 13.949000 6.450000 # Ti MOL
181 1 8 0.000000 0.000000 15.692000 9.675000 # Ti MOL
182 1 5 0.000000 1.510000 16.563999 11.287000 # N MOL
183 1 1 0.000000 30.200001 17.436001 8.063000 # C MOL
184 1 8 0.000000 30.200001 17.436001 12.900000 # Ti MOL
185 1 8 0.000000 1.510000 16.563999 6.450000 # Ti MOL
186 1 8 0.000000 28.690001 18.308001 9.675000 # Ti MOL
187 1 5 0.000000 0.000000 19.180000 11.287000 # N MOL
188 1 1 0.000000 28.690001 20.051001 8.063000 # C MOL
189 1 8 0.000000 28.690001 20.051001 12.900000 # Ti MOL
190 1 8 0.000000 0.000000 19.180000 6.450000 # Ti MOL
191 1 8 0.000000 27.180000 20.923000 9.675000 # Ti MOL
192 1 5 0.000000 28.690001 21.795000 11.287000 # N MOL
193 1 1 0.000000 27.180000 22.667000 8.063000 # C MOL
194 1 8 0.000000 27.180000 22.667000 12.900000 # Ti MOL
195 1 8 0.000000 28.690001 21.795000 6.450000 # Ti MOL
196 1 8 0.000000 25.670000 23.539000 9.675000 # Ti MOL
197 1 5 0.000000 27.180000 24.410000 11.287000 # N MOL
198 1 1 0.000000 25.670000 25.282000 8.063000 # C MOL
199 1 8 0.000000 25.670000 25.282000 12.900000 # Ti MOL
200 1 8 0.000000 27.180000 24.410000 6.450000 # Ti MOL
201 1 8 0.000000 12.080000 0.000000 9.675000 # Ti MOL
202 1 5 0.000000 13.590000 0.872000 11.287000 # N MOL
203 1 1 0.000000 12.080000 1.744000 8.063000 # C MOL
204 1 8 0.000000 12.080000 1.744000 12.900000 # Ti MOL
205 1 8 0.000000 13.590000 0.872000 6.450000 # Ti MOL
206 1 8 0.000000 10.570000 2.615000 9.675000 # Ti MOL
207 1 5 0.000000 12.080000 3.487000 11.287000 # N MOL
208 1 1 0.000000 10.570000 4.359000 8.063000 # C MOL
209 1 8 0.000000 10.570000 4.359000 12.900000 # Ti MOL
210 1 8 0.000000 12.080000 3.487000 6.450000 # Ti MOL
211 1 8 0.000000 9.060000 5.231000 9.675000 # Ti MOL
212 1 5 0.000000 10.570000 6.103000 11.287000 # N MOL
213 1 1 0.000000 9.060000 6.974000 8.063000 # C MOL
214 1 8 0.000000 9.060000 6.974000 12.900000 # Ti MOL
215 1 8 0.000000 10.570000 6.103000 6.450000 # Ti MOL
216 1 8 0.000000 7.550000 7.846000 9.675000 # Ti MOL
217 1 5 0.000000 9.060000 8.718000 11.287000 # N MOL
218 1 1 0.000000 7.550000 9.590000 8.063000 # C MOL
219 1 8 0.000000 7.550000 9.590000 12.900000 # Ti MOL
220 1 8 0.000000 9.060000 8.718000 6.450000 # Ti MOL
221 1 8 0.000000 6.040000 10.462000 9.675000 # Ti MOL
222 1 5 0.000000 7.550000 11.333000 11.287000 # N MOL
223 1 1 0.000000 6.040000 12.205000 8.063000 # C MOL
224 1 8 0.000000 6.040000 12.205000 12.900000 # Ti MOL
225 1 8 0.000000 7.550000 11.333000 6.450000 # Ti MOL
226 1 8 0.000000 4.530000 13.077000 9.675000 # Ti MOL
227 1 5 0.000000 6.040000 13.949000 11.287000 # N MOL
228 1 1 0.000000 4.530000 14.821000 8.063000 # C MOL
229 1 8 0.000000 4.530000 14.821000 12.900000 # Ti MOL
230 1 8 0.000000 6.040000 13.949000 6.450000 # Ti MOL
231 1 8 0.000000 3.020000 15.692000 9.675000 # Ti MOL
232 1 5 0.000000 4.530000 16.563999 11.287000 # N MOL
233 1 1 0.000000 3.020000 17.436001 8.063000 # C MOL
234 1 8 0.000000 3.020000 17.436001 12.900000 # Ti MOL
235 1 8 0.000000 4.530000 16.563999 6.450000 # Ti MOL
236 1 8 0.000000 1.510000 18.308001 9.675000 # Ti MOL
237 1 5 0.000000 3.020000 19.180000 11.287000 # N MOL
238 1 1 0.000000 1.510000 20.051001 8.063000 # C MOL
239 1 8 0.000000 1.510000 20.051001 12.900000 # Ti MOL
240 1 8 0.000000 3.020000 19.180000 6.450000 # Ti MOL
241 1 8 0.000000 0.000000 20.923000 9.675000 # Ti MOL
242 1 5 0.000000 1.510000 21.795000 11.287000 # N MOL
243 1 1 0.000000 30.200001 22.667000 8.063000 # C MOL
244 1 8 0.000000 30.200001 22.667000 12.900000 # Ti MOL
245 1 8 0.000000 1.510000 21.795000 6.450000 # Ti MOL
246 1 8 0.000000 28.690001 23.539000 9.675000 # Ti MOL
247 1 5 0.000000 0.000000 24.410000 11.287000 # N MOL
248 1 1 0.000000 28.690001 25.282000 8.063000 # C MOL
249 1 8 0.000000 28.690001 25.282000 12.900000 # Ti MOL
250 1 8 0.000000 0.000000 24.410000 6.450000 # Ti MOL
251 1 8 0.000000 15.100000 0.000000 9.675000 # Ti MOL
252 1 5 0.000000 16.610001 0.872000 11.287000 # N MOL
253 1 1 0.000000 15.100000 1.744000 8.063000 # C MOL
254 1 8 0.000000 15.100000 1.744000 12.900000 # Ti MOL
255 1 8 0.000000 16.610001 0.872000 6.450000 # Ti MOL
256 1 8 0.000000 13.590000 2.615000 9.675000 # Ti MOL
257 1 5 0.000000 15.100000 3.487000 11.287000 # N MOL
258 1 1 0.000000 13.590000 4.359000 8.063000 # C MOL
259 1 8 0.000000 13.590000 4.359000 12.900000 # Ti MOL
260 1 8 0.000000 15.100000 3.487000 6.450000 # Ti MOL
261 1 8 0.000000 12.080000 5.231000 9.675000 # Ti MOL
262 1 5 0.000000 13.590000 6.103000 11.287000 # N MOL
263 1 1 0.000000 12.080000 6.974000 8.063000 # C MOL
264 1 8 0.000000 12.080000 6.974000 12.900000 # Ti MOL
265 1 8 0.000000 13.590000 6.103000 6.450000 # Ti MOL
266 1 8 0.000000 10.570000 7.846000 9.675000 # Ti MOL
267 1 8 0.000000 9.060000 10.462000 9.675000 # Ti MOL
268 1 1 0.000000 9.060000 12.205000 8.063000 # C MOL
269 1 8 0.000000 9.060000 12.205000 12.900000 # Ti MOL
270 1 8 0.000000 7.550000 13.077000 9.675000 # Ti MOL
271 1 5 0.000000 9.060000 13.949000 11.287000 # N MOL
272 1 1 0.000000 7.550000 14.821000 8.063000 # C MOL
273 1 8 0.000000 7.550000 14.821000 12.900000 # Ti MOL
274 1 8 0.000000 9.060000 13.949000 6.450000 # Ti MOL
275 1 8 0.000000 6.040000 15.692000 9.675000 # Ti MOL
276 1 5 0.000000 7.550000 16.563999 11.287000 # N MOL
277 1 1 0.000000 6.040000 17.436001 8.063000 # C MOL
278 1 8 0.000000 6.040000 17.436001 12.900000 # Ti MOL
279 1 8 0.000000 7.550000 16.563999 6.450000 # Ti MOL
280 1 8 0.000000 4.530000 18.308001 9.675000 # Ti MOL
281 1 5 0.000000 6.040000 19.180000 11.287000 # N MOL
282 1 1 0.000000 4.530000 20.051001 8.063000 # C MOL
283 1 8 0.000000 4.530000 20.051001 12.900000 # Ti MOL
284 1 8 0.000000 6.040000 19.180000 6.450000 # Ti MOL
285 1 8 0.000000 3.020000 20.923000 9.675000 # Ti MOL
286 1 5 0.000000 4.530000 21.795000 11.287000 # N MOL
287 1 1 0.000000 3.020000 22.667000 8.063000 # C MOL
288 1 8 0.000000 3.020000 22.667000 12.900000 # Ti MOL
289 1 8 0.000000 4.530000 21.795000 6.450000 # Ti MOL
290 1 8 0.000000 1.510000 23.539000 9.675000 # Ti MOL
291 1 5 0.000000 3.020000 24.410000 11.287000 # N MOL
292 1 1 0.000000 1.510000 25.282000 8.063000 # C MOL
293 1 8 0.000000 1.510000 25.282000 12.900000 # Ti MOL
294 1 8 0.000000 3.020000 24.410000 6.450000 # Ti MOL
295 1 8 0.000000 18.120001 0.000000 9.675000 # Ti MOL
296 1 5 0.000000 19.629999 0.872000 11.287000 # N MOL
297 1 1 0.000000 18.120001 1.744000 8.063000 # C MOL
298 1 8 0.000000 18.120001 1.744000 12.900000 # Ti MOL
299 1 8 0.000000 19.629999 0.872000 6.450000 # Ti MOL
300 1 8 0.000000 16.610001 2.615000 9.675000 # Ti MOL
301 1 5 0.000000 18.120001 3.487000 11.287000 # N MOL
302 1 1 0.000000 16.610001 4.359000 8.063000 # C MOL
303 1 8 0.000000 16.610001 4.359000 12.900000 # Ti MOL
304 1 8 0.000000 18.120001 3.487000 6.450000 # Ti MOL
305 1 8 0.000000 15.100000 5.231000 9.675000 # Ti MOL
306 1 5 0.000000 16.610001 6.103000 11.287000 # N MOL
307 1 1 0.000000 15.100000 6.974000 8.063000 # C MOL
308 1 8 0.000000 15.100000 6.974000 12.900000 # Ti MOL
309 1 8 0.000000 16.610001 6.103000 6.450000 # Ti MOL
310 1 8 0.000000 9.060000 15.692000 9.675000 # Ti MOL
311 1 5 0.000000 10.570000 16.563999 11.287000 # N MOL
312 1 1 0.000000 9.060000 17.436001 8.063000 # C MOL
313 1 8 0.000000 9.060000 17.436001 12.900000 # Ti MOL
314 1 8 0.000000 10.570000 16.563999 6.450000 # Ti MOL
315 1 8 0.000000 7.550000 18.308001 9.675000 # Ti MOL
316 1 5 0.000000 9.060000 19.180000 11.287000 # N MOL
317 1 1 0.000000 7.550000 20.051001 8.063000 # C MOL
318 1 8 0.000000 7.550000 20.051001 12.900000 # Ti MOL
319 1 8 0.000000 9.060000 19.180000 6.450000 # Ti MOL
320 1 8 0.000000 6.040000 20.923000 9.675000 # Ti MOL
321 1 5 0.000000 7.550000 21.795000 11.287000 # N MOL
322 1 1 0.000000 6.040000 22.667000 8.063000 # C MOL
323 1 8 0.000000 6.040000 22.667000 12.900000 # Ti MOL
324 1 8 0.000000 7.550000 21.795000 6.450000 # Ti MOL
325 1 8 0.000000 4.530000 23.539000 9.675000 # Ti MOL
326 1 5 0.000000 6.040000 24.410000 11.287000 # N MOL
327 1 1 0.000000 4.530000 25.282000 8.063000 # C MOL
328 1 8 0.000000 4.530000 25.282000 12.900000 # Ti MOL
329 1 8 0.000000 6.040000 24.410000 6.450000 # Ti MOL
330 1 8 0.000000 21.139999 0.000000 9.675000 # Ti MOL
331 1 5 0.000000 22.650000 0.872000 11.287000 # N MOL
332 1 1 0.000000 21.139999 1.744000 8.063000 # C MOL
333 1 8 0.000000 21.139999 1.744000 12.900000 # Ti MOL
334 1 8 0.000000 22.650000 0.872000 6.450000 # Ti MOL
335 1 8 0.000000 19.629999 2.615000 9.675000 # Ti MOL
336 1 5 0.000000 21.139999 3.487000 11.287000 # N MOL
337 1 1 0.000000 19.629999 4.359000 8.063000 # C MOL
338 1 8 0.000000 19.629999 4.359000 12.900000 # Ti MOL
339 1 8 0.000000 21.139999 3.487000 6.450000 # Ti MOL
340 1 8 0.000000 18.120001 5.231000 9.675000 # Ti MOL
341 1 5 0.000000 19.629999 6.103000 11.287000 # N MOL
342 1 1 0.000000 18.120001 6.974000 8.063000 # C MOL
343 1 8 0.000000 18.120001 6.974000 12.900000 # Ti MOL
344 1 8 0.000000 19.629999 6.103000 6.450000 # Ti MOL
345 1 1 0.000000 12.080000 17.436001 8.063000 # C MOL
346 1 8 0.000000 12.080000 17.436001 12.900000 # Ti MOL
347 1 8 0.000000 10.570000 18.308001 9.675000 # Ti MOL
348 1 5 0.000000 12.080000 19.180000 11.287000 # N MOL
349 1 1 0.000000 10.570000 20.051001 8.063000 # C MOL
350 1 8 0.000000 10.570000 20.051001 12.900000 # Ti MOL
351 1 8 0.000000 12.080000 19.180000 6.450000 # Ti MOL
352 1 8 0.000000 9.060000 20.923000 9.675000 # Ti MOL
353 1 5 0.000000 10.570000 21.795000 11.287000 # N MOL
354 1 1 0.000000 9.060000 22.667000 8.063000 # C MOL
355 1 8 0.000000 9.060000 22.667000 12.900000 # Ti MOL
356 1 8 0.000000 10.570000 21.795000 6.450000 # Ti MOL
357 1 8 0.000000 7.550000 23.539000 9.675000 # Ti MOL
358 1 5 0.000000 9.060000 24.410000 11.287000 # N MOL
359 1 1 0.000000 7.550000 25.282000 8.063000 # C MOL
360 1 8 0.000000 7.550000 25.282000 12.900000 # Ti MOL
361 1 8 0.000000 9.060000 24.410000 6.450000 # Ti MOL
362 1 8 0.000000 24.160000 0.000000 9.675000 # Ti MOL
363 1 5 0.000000 25.670000 0.872000 11.287000 # N MOL
364 1 1 0.000000 24.160000 1.744000 8.063000 # C MOL
365 1 8 0.000000 24.160000 1.744000 12.900000 # Ti MOL
366 1 8 0.000000 25.670000 0.872000 6.450000 # Ti MOL
367 1 8 0.000000 22.650000 2.615000 9.675000 # Ti MOL
368 1 5 0.000000 24.160000 3.487000 11.287000 # N MOL
369 1 1 0.000000 22.650000 4.359000 8.063000 # C MOL
370 1 8 0.000000 22.650000 4.359000 12.900000 # Ti MOL
371 1 8 0.000000 24.160000 3.487000 6.450000 # Ti MOL
372 1 8 0.000000 21.139999 5.231000 9.675000 # Ti MOL
373 1 5 0.000000 22.650000 6.103000 11.287000 # N MOL
374 1 1 0.000000 21.139999 6.974000 8.063000 # C MOL
375 1 8 0.000000 21.139999 6.974000 12.900000 # Ti MOL
376 1 8 0.000000 22.650000 6.103000 6.450000 # Ti MOL
377 1 8 0.000000 19.629999 7.846000 9.675000 # Ti MOL
378 1 5 0.000000 21.139999 8.718000 11.287000 # N MOL
379 1 8 0.000000 21.139999 8.718000 6.450000 # Ti MOL
380 1 8 0.000000 13.590000 18.308001 9.675000 # Ti MOL
381 1 5 0.000000 15.100000 19.180000 11.287000 # N MOL
382 1 1 0.000000 13.590000 20.051001 8.063000 # C MOL
383 1 8 0.000000 13.590000 20.051001 12.900000 # Ti MOL
384 1 8 0.000000 15.100000 19.180000 6.450000 # Ti MOL
385 1 8 0.000000 12.080000 20.923000 9.675000 # Ti MOL
386 1 5 0.000000 13.590000 21.795000 11.287000 # N MOL
387 1 1 0.000000 12.080000 22.667000 8.063000 # C MOL
388 1 8 0.000000 12.080000 22.667000 12.900000 # Ti MOL
389 1 8 0.000000 13.590000 21.795000 6.450000 # Ti MOL
390 1 8 0.000000 10.570000 23.539000 9.675000 # Ti MOL
391 1 5 0.000000 12.080000 24.410000 11.287000 # N MOL
392 1 1 0.000000 10.570000 25.282000 8.063000 # C MOL
393 1 8 0.000000 10.570000 25.282000 12.900000 # Ti MOL
394 1 8 0.000000 12.080000 24.410000 6.450000 # Ti MOL
395 1 8 0.000000 27.180000 0.000000 9.675000 # Ti MOL
396 1 5 0.000000 28.690001 0.872000 11.287000 # N MOL
397 1 1 0.000000 27.180000 1.744000 8.063000 # C MOL
398 1 8 0.000000 27.180000 1.744000 12.900000 # Ti MOL
399 1 8 0.000000 28.690001 0.872000 6.450000 # Ti MOL
400 1 8 0.000000 25.670000 2.615000 9.675000 # Ti MOL
401 1 5 0.000000 27.180000 3.487000 11.287000 # N MOL
402 1 1 0.000000 25.670000 4.359000 8.063000 # C MOL
403 1 8 0.000000 25.670000 4.359000 12.900000 # Ti MOL
404 1 8 0.000000 27.180000 3.487000 6.450000 # Ti MOL
405 1 8 0.000000 24.160000 5.231000 9.675000 # Ti MOL
406 1 5 0.000000 25.670000 6.103000 11.287000 # N MOL
407 1 1 0.000000 24.160000 6.974000 8.063000 # C MOL
408 1 8 0.000000 24.160000 6.974000 12.900000 # Ti MOL
409 1 8 0.000000 25.670000 6.103000 6.450000 # Ti MOL
410 1 8 0.000000 22.650000 7.846000 9.675000 # Ti MOL
411 1 5 0.000000 24.160000 8.718000 11.287000 # N MOL
412 1 1 0.000000 22.650000 9.590000 8.063000 # C MOL
413 1 8 0.000000 22.650000 9.590000 12.900000 # Ti MOL
414 1 8 0.000000 24.160000 8.718000 6.450000 # Ti MOL
415 1 8 0.000000 21.139999 10.462000 9.675000 # Ti MOL
416 1 5 0.000000 22.650000 11.333000 11.287000 # N MOL
417 1 1 0.000000 21.139999 12.205000 8.063000 # C MOL
418 1 8 0.000000 21.139999 12.205000 12.900000 # Ti MOL
419 1 8 0.000000 22.650000 11.333000 6.450000 # Ti MOL
420 1 5 0.000000 21.139999 13.949000 11.287000 # N MOL
421 1 8 0.000000 21.139999 13.949000 6.450000 # Ti MOL
422 1 5 0.000000 19.629999 16.563999 11.287000 # N MOL
423 1 1 0.000000 18.120001 17.436001 8.063000 # C MOL
424 1 8 0.000000 18.120001 17.436001 12.900000 # Ti MOL
425 1 8 0.000000 19.629999 16.563999 6.450000 # Ti MOL
426 1 8 0.000000 16.610001 18.308001 9.675000 # Ti MOL
427 1 5 0.000000 18.120001 19.180000 11.287000 # N MOL
428 1 1 0.000000 16.610001 20.051001 8.063000 # C MOL
429 1 8 0.000000 16.610001 20.051001 12.900000 # Ti MOL
430 1 8 0.000000 18.120001 19.180000 6.450000 # Ti MOL
431 1 8 0.000000 15.100000 20.923000 9.675000 # Ti MOL
432 1 5 0.000000 16.610001 21.795000 11.287000 # N MOL
433 1 1 0.000000 15.100000 22.667000 8.063000 # C MOL
434 1 8 0.000000 15.100000 22.667000 12.900000 # Ti MOL
435 1 8 0.000000 16.610001 21.795000 6.450000 # Ti MOL
436 1 8 0.000000 13.590000 23.539000 9.675000 # Ti MOL
437 1 5 0.000000 15.100000 24.410000 11.287000 # N MOL
438 1 1 0.000000 13.590000 25.282000 8.063000 # C MOL
439 1 8 0.000000 13.590000 25.282000 12.900000 # Ti MOL
440 1 8 0.000000 15.100000 24.410000 6.450000 # Ti MOL
441 1 7 0.000000 0.373000 15.015000 51.182999 # O MOL
442 1 4 0.000000 0.946000 15.611000 50.701000 # H MOL
443 1 4 0.000000 0.830000 14.197000 51.377998 # H MOL
444 1 7 0.000000 9.242000 11.478000 50.633999 # O MOL
445 1 4 0.000000 8.482000 12.043000 50.490002 # H MOL
446 1 4 0.000000 8.983000 10.557000 50.612000 # H MOL
447 1 7 0.000000 24.351000 0.112000 43.169998 # O MOL
448 1 4 0.000000 23.417999 0.271000 43.314999 # H MOL
449 1 4 0.000000 24.806999 0.013000 44.005001 # H MOL
450 1 7 0.000000 6.004000 22.653000 16.606001 # O MOL
451 1 4 0.000000 5.522000 23.146000 17.270000 # H MOL
452 1 4 0.000000 6.679000 23.202000 16.207001 # H MOL
453 1 7 0.000000 28.520000 4.638000 47.855000 # O MOL
454 1 4 0.000000 27.819000 5.098000 47.395000 # H MOL
455 1 4 0.000000 29.368000 5.038000 47.660999 # H MOL
456 1 7 0.000000 4.886000 0.526000 28.292999 # O MOL
457 1 4 0.000000 5.689000 0.012000 28.382000 # H MOL
458 1 4 0.000000 4.208000 0.013000 27.853001 # H MOL
459 1 7 0.000000 27.635000 4.447000 58.716999 # O MOL
460 1 4 0.000000 27.862000 4.102000 59.580002 # H MOL
461 1 4 0.000000 26.768000 4.142000 58.452000 # H MOL
462 1 7 0.000000 0.271000 15.026000 46.486000 # O MOL
463 1 4 0.000000 0.023000 15.536000 47.257000 # H MOL
464 1 4 0.000000 0.341000 14.097000 46.708000 # H MOL
465 1 7 0.000000 18.697001 5.175000 48.324001 # O MOL
466 1 4 0.000000 18.299999 4.927000 49.159000 # H MOL
467 1 4 0.000000 19.448999 5.749000 48.467999 # H MOL
468 1 7 0.000000 1.526000 16.062000 41.514000 # O MOL
469 1 4 0.000000 2.057000 16.676001 42.019001 # H MOL
470 1 4 0.000000 0.699000 15.887000 41.962002 # H MOL
471 1 7 0.000000 2.770000 16.080000 17.968000 # O MOL
472 1 4 0.000000 2.722000 17.007000 18.201000 # H MOL
473 1 4 0.000000 3.578000 15.897000 17.488001 # H MOL
474 1 7 0.000000 9.253000 0.905000 33.519001 # O MOL
475 1 4 0.000000 9.928000 1.168000 34.145000 # H MOL
476 1 4 0.000000 8.940000 0.023000 33.716000 # H MOL
477 1 7 0.000000 15.598000 7.682000 29.893999 # O MOL
478 1 4 0.000000 15.791000 6.749000 29.796000 # H MOL
479 1 4 0.000000 16.407000 8.183000 29.990000 # H MOL
480 1 7 0.000000 7.129000 10.715000 54.347000 # O MOL
481 1 4 0.000000 7.355000 10.368000 53.484001 # H MOL
482 1 4 0.000000 7.914000 10.813000 54.884998 # H MOL
483 1 7 0.000000 3.863000 19.608999 60.174000 # O MOL
484 1 4 0.000000 3.595000 20.131001 60.930000 # H MOL
485 1 4 0.000000 3.210000 18.936001 59.983002 # H MOL
486 1 7 0.000000 14.020000 1.677000 50.212002 # O MOL
487 1 4 0.000000 13.257000 1.543000 50.775002 # H MOL
488 1 4 0.000000 13.898000 2.451000 49.661999 # H MOL
489 1 7 0.000000 11.601000 17.145000 24.885000 # O MOL
490 1 4 0.000000 12.124000 16.361000 24.719999 # H MOL
491 1 4 0.000000 10.969000 16.985001 25.586000 # H MOL
492 1 7 0.000000 2.330000 17.617001 45.933998 # O MOL
493 1 4 0.000000 2.046000 16.707001 46.021999 # H MOL
494 1 4 0.000000 1.696000 18.117001 45.419998 # H MOL
495 1 7 0.000000 27.396999 11.447000 44.417999 # O MOL
496 1 4 0.000000 26.653999 11.571000 43.827000 # H MOL
497 1 4 0.000000 28.219999 11.483000 43.931000 # H MOL
498 1 7 0.000000 14.544000 4.937000 41.751999 # O MOL
499 1 4 0.000000 13.874000 4.287000 41.540001 # H MOL
500 1 4 0.000000 15.296000 4.844000 41.167999 # H MOL
501 1 7 0.000000 23.819000 12.925000 36.167999 # O MOL
502 1 4 0.000000 23.839001 13.707000 35.615002 # H MOL
503 1 4 0.000000 23.968000 12.140000 35.641998 # H MOL
504 1 7 0.000000 27.273001 24.608000 45.085999 # O MOL
505 1 4 0.000000 27.350000 24.114000 44.270000 # H MOL
506 1 4 0.000000 26.610001 25.292999 45.000999 # H MOL
507 1 7 0.000000 11.519000 11.051000 51.298000 # O MOL
508 1 4 0.000000 11.637000 11.821000 50.742001 # H MOL
509 1 4 0.000000 12.362000 10.756000 51.644001 # H MOL
510 1 7 0.000000 27.450001 16.138000 27.065001 # O MOL
511 1 4 0.000000 27.570000 16.915001 26.518999 # H MOL
512 1 4 0.000000 27.563000 16.358000 27.989000 # H MOL
513 1 7 0.000000 15.722000 14.630000 58.778999 # O MOL
514 1 4 0.000000 15.629000 13.805000 58.303001 # H MOL
515 1 4 0.000000 15.829000 14.465000 59.716000 # H MOL
516 1 7 0.000000 20.049999 16.493999 25.638000 # O MOL
517 1 4 0.000000 20.624001 16.191000 24.934999 # H MOL
518 1 4 0.000000 19.181999 16.099001 25.556000 # H MOL
519 1 7 0.000000 22.882999 1.680000 45.381001 # O MOL
520 1 4 0.000000 22.635000 2.233000 46.120998 # H MOL
521 1 4 0.000000 23.836000 1.609000 45.320000 # H MOL
522 1 7 0.000000 29.656000 6.516000 59.527000 # O MOL
523 1 4 0.000000 30.209000 5.759000 59.719002 # H MOL
524 1 4 0.000000 28.754999 6.239000 59.362000 # H MOL
525 1 7 0.000000 0.584000 20.879000 57.741001 # O MOL
526 1 4 0.000000 0.027000 21.655001 57.806000 # H MOL
527 1 4 0.000000 0.050000 20.093000 57.625000 # H MOL
528 1 7 0.000000 19.990999 22.836000 20.136000 # O MOL
529 1 4 0.000000 20.084999 23.774000 19.969000 # H MOL
530 1 4 0.000000 19.108999 22.638000 20.448999 # H MOL
531 1 7 0.000000 25.594999 24.864000 31.723000 # O MOL
532 1 4 0.000000 26.409000 25.292000 31.986000 # H MOL
533 1 4 0.000000 25.524000 24.000000 32.130001 # H MOL
534 1 7 0.000000 8.197000 10.555000 38.584000 # O MOL
535 1 4 0.000000 7.361000 11.019000 38.542000 # H MOL
536 1 4 0.000000 8.833000 11.058000 39.094002 # H MOL
537 1 7 0.000000 7.418000 14.994000 54.341999 # O MOL
538 1 4 0.000000 7.116000 15.894000 54.217999 # H MOL