LAMMPS data file. CGCMM style. atom_style full generated by VMD/TopoTools v1.8 on Mon Oct 23 15:15:12 +0330 2023
 29703 atoms
 17561 bonds
 9405 angles
 506 dihedrals
 11 impropers
 8 atom types
 1 bond types
 9 angle types
 7 dihedral types
 1 improper types
 -0.049499 48.328499  xlo xhi
 -0.040000 41.001000  ylo yhi
 -0.000000 146.899994  zlo zhi

# Pair Coeffs
#
# 1  C
# 2  Ca
# 3  Cl
# 4  H
# 5  N
# 6  Na
# 7  O
# 8  Ti

# Bond Coeffs
#
# 1  

# Angle Coeffs
#
# 1  Cl-Cl-Cl
# 2  Cl-Cl-O
# 3  Cl-O-Cl
# 4  Cl-O-H
# 5  Cl-O-Ti
# 6  H-O-H
# 7  H-O-Ti
# 8  O-Cl-O
# 9  O-Cl-Ti

# Dihedral Coeffs
#
# 1  Cl-Cl-Cl-O
# 2  Cl-Cl-O-Cl
# 3  Cl-Cl-O-H
# 4  O-Cl-Cl-O
# 5  O-Cl-O-Cl
# 6  O-Cl-O-H
# 7  Ti-Cl-O-H

# Improper Coeffs
#
# 1  O-Cl-H-H

 Masses

 1 12.010700 # C
 2 40.077999 # Ca
 3 35.452999 # Cl
 4 1.007940 # H
 5 14.006700 # N
 6 22.989771 # Na
 7 15.999400 # O
 8 47.867001 # Ti

 Atoms # full

1 1 8 0.000000 0.000000 0.000000 3.225000 # Ti MOL
2 1 8 0.000000 48.320000 1.744000 6.450000 # Ti MOL
3 1 8 0.000000 1.510000 0.872000 0.000000 # Ti MOL
4 1 1 0.000000 1.510000 0.872000 4.837000 # C MOL
5 1 5 0.000000 48.320000 1.744000 1.613000 # N MOL
6 1 8 0.000000 46.810001 2.615000 3.225000 # Ti MOL
7 1 8 0.000000 46.810001 4.359000 6.450000 # Ti MOL
8 1 8 0.000000 0.000000 3.487000 0.000000 # Ti MOL
9 1 1 0.000000 0.000000 3.487000 4.837000 # C MOL
10 1 5 0.000000 46.810001 4.359000 1.613000 # N MOL
11 1 8 0.000000 45.299999 5.231000 3.225000 # Ti MOL
12 1 8 0.000000 45.299999 6.974000 6.450000 # Ti MOL
13 1 8 0.000000 46.810001 6.103000 0.000000 # Ti MOL
14 1 1 0.000000 46.810001 6.103000 4.837000 # C MOL
15 1 5 0.000000 45.299999 6.974000 1.613000 # N MOL
16 1 8 0.000000 43.790001 7.846000 3.225000 # Ti MOL
17 1 8 0.000000 43.790001 9.590000 6.450000 # Ti MOL
18 1 8 0.000000 45.299999 8.718000 0.000000 # Ti MOL
19 1 1 0.000000 45.299999 8.718000 4.837000 # C MOL
20 1 5 0.000000 43.790001 9.590000 1.613000 # N MOL
21 1 8 0.000000 42.279999 10.462000 3.225000 # Ti MOL
22 1 8 0.000000 42.279999 12.205000 6.450000 # Ti MOL
23 1 8 0.000000 43.790001 11.333000 0.000000 # Ti MOL
24 1 1 0.000000 43.790001 11.333000 4.837000 # C MOL
25 1 5 0.000000 42.279999 12.205000 1.613000 # N MOL
26 1 8 0.000000 40.770000 13.077000 3.225000 # Ti MOL
27 1 8 0.000000 40.770000 14.821000 6.450000 # Ti MOL
28 1 8 0.000000 42.279999 13.949000 0.000000 # Ti MOL
29 1 1 0.000000 42.279999 13.949000 4.837000 # C MOL
30 1 5 0.000000 40.770000 14.821000 1.613000 # N MOL
31 1 8 0.000000 39.259998 15.692000 3.225000 # Ti MOL
32 1 8 0.000000 39.259998 17.436001 6.450000 # Ti MOL
33 1 8 0.000000 40.770000 16.563999 0.000000 # Ti MOL
34 1 1 0.000000 40.770000 16.563999 4.837000 # C MOL
35 1 5 0.000000 39.259998 17.436001 1.613000 # N MOL
36 1 8 0.000000 37.750000 18.308001 3.225000 # Ti MOL
37 1 8 0.000000 37.750000 20.051001 6.450000 # Ti MOL
38 1 8 0.000000 39.259998 19.180000 0.000000 # Ti MOL
39 1 1 0.000000 39.259998 19.180000 4.837000 # C MOL
40 1 5 0.000000 37.750000 20.051001 1.613000 # N MOL
41 1 8 0.000000 36.240002 20.923000 3.225000 # Ti MOL
42 1 8 0.000000 36.240002 22.667000 6.450000 # Ti MOL
43 1 8 0.000000 37.750000 21.795000 0.000000 # Ti MOL
44 1 1 0.000000 37.750000 21.795000 4.837000 # C MOL
45 1 5 0.000000 36.240002 22.667000 1.613000 # N MOL
46 1 8 0.000000 34.730000 23.539000 3.225000 # Ti MOL
47 1 8 0.000000 34.730000 25.282000 6.450000 # Ti MOL
48 1 8 0.000000 36.240002 24.410000 0.000000 # Ti MOL
49 1 1 0.000000 36.240002 24.410000 4.837000 # C MOL
50 1 5 0.000000 34.730000 25.282000 1.613000 # N MOL
51 1 8 0.000000 33.220001 26.153999 3.225000 # Ti MOL
52 1 8 0.000000 33.220001 27.898001 6.450000 # Ti MOL
53 1 8 0.000000 34.730000 27.025999 0.000000 # Ti MOL
54 1 1 0.000000 34.730000 27.025999 4.837000 # C MOL
55 1 5 0.000000 33.220001 27.898001 1.613000 # N MOL
56 1 8 0.000000 31.709999 28.768999 3.225000 # Ti MOL
57 1 8 0.000000 31.709999 30.513000 6.450000 # Ti MOL
58 1 8 0.000000 33.220001 29.641001 0.000000 # Ti MOL
59 1 1 0.000000 33.220001 29.641001 4.837000 # C MOL
60 1 5 0.000000 31.709999 30.513000 1.613000 # N MOL
61 1 8 0.000000 30.200001 31.385000 3.225000 # Ti MOL
62 1 8 0.000000 30.200001 33.127998 6.450000 # Ti MOL
63 1 8 0.000000 31.709999 32.257000 0.000000 # Ti MOL
64 1 1 0.000000 31.709999 32.257000 4.837000 # C MOL
65 1 5 0.000000 30.200001 33.127998 1.613000 # N MOL
66 1 8 0.000000 28.690001 34.000000 3.225000 # Ti MOL
67 1 8 0.000000 28.690001 35.743999 6.450000 # Ti MOL
68 1 8 0.000000 30.200001 34.872002 0.000000 # Ti MOL
69 1 1 0.000000 30.200001 34.872002 4.837000 # C MOL
70 1 5 0.000000 28.690001 35.743999 1.613000 # N MOL
71 1 8 0.000000 27.180000 36.616001 3.225000 # Ti MOL
72 1 8 0.000000 27.180000 38.359001 6.450000 # Ti MOL
73 1 8 0.000000 28.690001 37.487000 0.000000 # Ti MOL
74 1 1 0.000000 28.690001 37.487000 4.837000 # C MOL
75 1 5 0.000000 27.180000 38.359001 1.613000 # N MOL
76 1 8 0.000000 25.670000 39.230999 3.225000 # Ti MOL
77 1 8 0.000000 25.670000 40.974998 6.450000 # Ti MOL
78 1 8 0.000000 27.180000 40.103001 0.000000 # Ti MOL
79 1 1 0.000000 27.180000 40.103001 4.837000 # C MOL
80 1 5 0.000000 25.670000 40.974998 1.613000 # N MOL
81 1 8 0.000000 3.020000 0.000000 3.225000 # Ti MOL
82 1 8 0.000000 3.020000 1.744000 6.450000 # Ti MOL
83 1 8 0.000000 4.530000 0.872000 0.000000 # Ti MOL
84 1 1 0.000000 4.530000 0.872000 4.837000 # C MOL
85 1 5 0.000000 3.020000 1.744000 1.613000 # N MOL
86 1 8 0.000000 1.510000 2.615000 3.225000 # Ti MOL
87 1 8 0.000000 1.510000 4.359000 6.450000 # Ti MOL
88 1 8 0.000000 3.020000 3.487000 0.000000 # Ti MOL
89 1 1 0.000000 3.020000 3.487000 4.837000 # C MOL
90 1 5 0.000000 1.510000 4.359000 1.613000 # N MOL
91 1 8 0.000000 0.000000 5.231000 3.225000 # Ti MOL
92 1 8 0.000000 48.320000 6.974000 6.450000 # Ti MOL
93 1 8 0.000000 1.510000 6.103000 0.000000 # Ti MOL
94 1 1 0.000000 1.510000 6.103000 4.837000 # C MOL
95 1 5 0.000000 48.320000 6.974000 1.613000 # N MOL
96 1 8 0.000000 46.810001 7.846000 3.225000 # Ti MOL
97 1 8 0.000000 46.810001 9.590000 6.450000 # Ti MOL
98 1 8 0.000000 0.000000 8.718000 0.000000 # Ti MOL
99 1 1 0.000000 0.000000 8.718000 4.837000 # C MOL
100 1 5 0.000000 46.810001 9.590000 1.613000 # N MOL
101 1 8 0.000000 45.299999 10.462000 3.225000 # Ti MOL
102 1 8 0.000000 45.299999 12.205000 6.450000 # Ti MOL
103 1 8 0.000000 46.810001 11.333000 0.000000 # Ti MOL
104 1 1 0.000000 46.810001 11.333000 4.837000 # C MOL
105 1 5 0.000000 45.299999 12.205000 1.613000 # N MOL
106 1 8 0.000000 43.790001 13.077000 3.225000 # Ti MOL
107 1 8 0.000000 43.790001 14.821000 6.450000 # Ti MOL
108 1 8 0.000000 45.299999 13.949000 0.000000 # Ti MOL
109 1 1 0.000000 45.299999 13.949000 4.837000 # C MOL
110 1 5 0.000000 43.790001 14.821000 1.613000 # N MOL
111 1 8 0.000000 42.279999 15.692000 3.225000 # Ti MOL
112 1 8 0.000000 42.279999 17.436001 6.450000 # Ti MOL
113 1 8 0.000000 43.790001 16.563999 0.000000 # Ti MOL
114 1 1 0.000000 43.790001 16.563999 4.837000 # C MOL
115 1 5 0.000000 42.279999 17.436001 1.613000 # N MOL
116 1 8 0.000000 40.770000 18.308001 3.225000 # Ti MOL
117 1 8 0.000000 40.770000 20.051001 6.450000 # Ti MOL
118 1 8 0.000000 42.279999 19.180000 0.000000 # Ti MOL
119 1 1 0.000000 42.279999 19.180000 4.837000 # C MOL
120 1 5 0.000000 40.770000 20.051001 1.613000 # N MOL
121 1 8 0.000000 39.259998 20.923000 3.225000 # Ti MOL
122 1 8 0.000000 39.259998 22.667000 6.450000 # Ti MOL
123 1 8 0.000000 40.770000 21.795000 0.000000 # Ti MOL
124 1 1 0.000000 40.770000 21.795000 4.837000 # C MOL
125 1 5 0.000000 39.259998 22.667000 1.613000 # N MOL
126 1 8 0.000000 37.750000 23.539000 3.225000 # Ti MOL
127 1 8 0.000000 37.750000 25.282000 6.450000 # Ti MOL
128 1 8 0.000000 39.259998 24.410000 0.000000 # Ti MOL
129 1 1 0.000000 39.259998 24.410000 4.837000 # C MOL
130 1 5 0.000000 37.750000 25.282000 1.613000 # N MOL
131 1 8 0.000000 36.240002 26.153999 3.225000 # Ti MOL
132 1 8 0.000000 36.240002 27.898001 6.450000 # Ti MOL
133 1 8 0.000000 37.750000 27.025999 0.000000 # Ti MOL
134 1 1 0.000000 37.750000 27.025999 4.837000 # C MOL
135 1 5 0.000000 36.240002 27.898001 1.613000 # N MOL
136 1 8 0.000000 34.730000 28.768999 3.225000 # Ti MOL
137 1 8 0.000000 34.730000 30.513000 6.450000 # Ti MOL
138 1 8 0.000000 36.240002 29.641001 0.000000 # Ti MOL
139 1 1 0.000000 36.240002 29.641001 4.837000 # C MOL
140 1 5 0.000000 34.730000 30.513000 1.613000 # N MOL
141 1 8 0.000000 33.220001 31.385000 3.225000 # Ti MOL
142 1 8 0.000000 33.220001 33.127998 6.450000 # Ti MOL
143 1 8 0.000000 34.730000 32.257000 0.000000 # Ti MOL
144 1 1 0.000000 34.730000 32.257000 4.837000 # C MOL
145 1 5 0.000000 33.220001 33.127998 1.613000 # N MOL
146 1 8 0.000000 31.709999 34.000000 3.225000 # Ti MOL
147 1 8 0.000000 31.709999 35.743999 6.450000 # Ti MOL
148 1 8 0.000000 33.220001 34.872002 0.000000 # Ti MOL
149 1 1 0.000000 33.220001 34.872002 4.837000 # C MOL
150 1 5 0.000000 31.709999 35.743999 1.613000 # N MOL
151 1 8 0.000000 30.200001 36.616001 3.225000 # Ti MOL
152 1 8 0.000000 30.200001 38.359001 6.450000 # Ti MOL
153 1 8 0.000000 31.709999 37.487000 0.000000 # Ti MOL
154 1 1 0.000000 31.709999 37.487000 4.837000 # C MOL
155 1 5 0.000000 30.200001 38.359001 1.613000 # N MOL
156 1 8 0.000000 28.690001 39.230999 3.225000 # Ti MOL
157 1 8 0.000000 28.690001 40.974998 6.450000 # Ti MOL
158 1 8 0.000000 30.200001 40.103001 0.000000 # Ti MOL
159 1 1 0.000000 30.200001 40.103001 4.837000 # C MOL
160 1 5 0.000000 28.690001 40.974998 1.613000 # N MOL
161 1 8 0.000000 6.040000 0.000000 3.225000 # Ti MOL
162 1 8 0.000000 6.040000 1.744000 6.450000 # Ti MOL
163 1 8 0.000000 7.550000 0.872000 0.000000 # Ti MOL
164 1 1 0.000000 7.550000 0.872000 4.837000 # C MOL
165 1 5 0.000000 6.040000 1.744000 1.613000 # N MOL
166 1 8 0.000000 4.530000 2.615000 3.225000 # Ti MOL
167 1 8 0.000000 4.530000 4.359000 6.450000 # Ti MOL
168 1 8 0.000000 6.040000 3.487000 0.000000 # Ti MOL
169 1 1 0.000000 6.040000 3.487000 4.837000 # C MOL
170 1 5 0.000000 4.530000 4.359000 1.613000 # N MOL
171 1 8 0.000000 3.020000 5.231000 3.225000 # Ti MOL
172 1 8 0.000000 3.020000 6.974000 6.450000 # Ti MOL
173 1 8 0.000000 4.530000 6.103000 0.000000 # Ti MOL
174 1 1 0.000000 4.530000 6.103000 4.837000 # C MOL
175 1 5 0.000000 3.020000 6.974000 1.613000 # N MOL
176 1 8 0.000000 1.510000 7.846000 3.225000 # Ti MOL
177 1 8 0.000000 1.510000 9.590000 6.450000 # Ti MOL
178 1 8 0.000000 3.020000 8.718000 0.000000 # Ti MOL
179 1 1 0.000000 3.020000 8.718000 4.837000 # C MOL
180 1 5 0.000000 1.510000 9.590000 1.613000 # N MOL
181 1 8 0.000000 0.000000 10.462000 3.225000 # Ti MOL
182 1 8 0.000000 48.320000 12.205000 6.450000 # Ti MOL
183 1 8 0.000000 1.510000 11.333000 0.000000 # Ti MOL
184 1 1 0.000000 1.510000 11.333000 4.837000 # C MOL
185 1 5 0.000000 48.320000 12.205000 1.613000 # N MOL
186 1 8 0.000000 46.810001 13.077000 3.225000 # Ti MOL
187 1 8 0.000000 46.810001 14.821000 6.450000 # Ti MOL
188 1 8 0.000000 0.000000 13.949000 0.000000 # Ti MOL
189 1 1 0.000000 0.000000 13.949000 4.837000 # C MOL
190 1 5 0.000000 46.810001 14.821000 1.613000 # N MOL
191 1 8 0.000000 45.299999 15.692000 3.225000 # Ti MOL
192 1 8 0.000000 45.299999 17.436001 6.450000 # Ti MOL
193 1 8 0.000000 46.810001 16.563999 0.000000 # Ti MOL
194 1 1 0.000000 46.810001 16.563999 4.837000 # C MOL
195 1 5 0.000000 45.299999 17.436001 1.613000 # N MOL
196 1 8 0.000000 43.790001 18.308001 3.225000 # Ti MOL
197 1 8 0.000000 43.790001 20.051001 6.450000 # Ti MOL
198 1 8 0.000000 45.299999 19.180000 0.000000 # Ti MOL
199 1 1 0.000000 45.299999 19.180000 4.837000 # C MOL
200 1 5 0.000000 43.790001 20.051001 1.613000 # N MOL
201 1 8 0.000000 42.279999 20.923000 3.225000 # Ti MOL
202 1 8 0.000000 42.279999 22.667000 6.450000 # Ti MOL
203 1 8 0.000000 43.790001 21.795000 0.000000 # Ti MOL
204 1 1 0.000000 43.790001 21.795000 4.837000 # C MOL
205 1 5 0.000000 42.279999 22.667000 1.613000 # N MOL
206 1 8 0.000000 40.770000 23.539000 3.225000 # Ti MOL
207 1 8 0.000000 40.770000 25.282000 6.450000 # Ti MOL
208 1 8 0.000000 42.279999 24.410000 0.000000 # Ti MOL
209 1 1 0.000000 42.279999 24.410000 4.837000 # C MOL
210 1 5 0.000000 40.770000 25.282000 1.613000 # N MOL
211 1 8 0.000000 39.259998 26.153999 3.225000 # Ti MOL
212 1 8 0.000000 39.259998 27.898001 6.450000 # Ti MOL
213 1 8 0.000000 40.770000 27.025999 0.000000 # Ti MOL
214 1 1 0.000000 40.770000 27.025999 4.837000 # C MOL
215 1 5 0.000000 39.259998 27.898001 1.613000 # N MOL
216 1 8 0.000000 37.750000 28.768999 3.225000 # Ti MOL
217 1 8 0.000000 37.750000 30.513000 6.450000 # Ti MOL
218 1 8 0.000000 39.259998 29.641001 0.000000 # Ti MOL
219 1 1 0.000000 39.259998 29.641001 4.837000 # C MOL
220 1 5 0.000000 37.750000 30.513000 1.613000 # N MOL
221 1 8 0.000000 36.240002 31.385000 3.225000 # Ti MOL
222 1 8 0.000000 36.240002 33.127998 6.450000 # Ti MOL
223 1 8 0.000000 37.750000 32.257000 0.000000 # Ti MOL
224 1 1 0.000000 37.750000 32.257000 4.837000 # C MOL
225 1 5 0.000000 36.240002 33.127998 1.613000 # N MOL
226 1 8 0.000000 34.730000 34.000000 3.225000 # Ti MOL
227 1 8 0.000000 34.730000 35.743999 6.450000 # Ti MOL
228 1 8 0.000000 36.240002 34.872002 0.000000 # Ti MOL
229 1 1 0.000000 36.240002 34.872002 4.837000 # C MOL
230 1 5 0.000000 34.730000 35.743999 1.613000 # N MOL
231 1 8 0.000000 33.220001 36.616001 3.225000 # Ti MOL
232 1 8 0.000000 33.220001 38.359001 6.450000 # Ti MOL
233 1 8 0.000000 34.730000 37.487000 0.000000 # Ti MOL
234 1 1 0.000000 34.730000 37.487000 4.837000 # C MOL
235 1 5 0.000000 33.220001 38.359001 1.613000 # N MOL
236 1 8 0.000000 31.709999 39.230999 3.225000 # Ti MOL
237 1 8 0.000000 31.709999 40.974998 6.450000 # Ti MOL
238 1 8 0.000000 33.220001 40.103001 0.000000 # Ti MOL
239 1 1 0.000000 33.220001 40.103001 4.837000 # C MOL
240 1 5 0.000000 31.709999 40.974998 1.613000 # N MOL
241 1 8 0.000000 9.060000 0.000000 3.225000 # Ti MOL
242 1 8 0.000000 9.060000 1.744000 6.450000 # Ti MOL
243 1 8 0.000000 10.570000 0.872000 0.000000 # Ti MOL
244 1 1 0.000000 10.570000 0.872000 4.837000 # C MOL
245 1 5 0.000000 9.060000 1.744000 1.613000 # N MOL
246 1 8 0.000000 7.550000 2.615000 3.225000 # Ti MOL
247 1 8 0.000000 7.550000 4.359000 6.450000 # Ti MOL
248 1 8 0.000000 9.060000 3.487000 0.000000 # Ti MOL
249 1 1 0.000000 9.060000 3.487000 4.837000 # C MOL
250 1 5 0.000000 7.550000 4.359000 1.613000 # N MOL
251 1 8 0.000000 6.040000 5.231000 3.225000 # Ti MOL
252 1 8 0.000000 6.040000 6.974000 6.450000 # Ti MOL
253 1 8 0.000000 7.550000 6.103000 0.000000 # Ti MOL
254 1 1 0.000000 7.550000 6.103000 4.837000 # C MOL
255 1 5 0.000000 6.040000 6.974000 1.613000 # N MOL
256 1 8 0.000000 4.530000 7.846000 3.225000 # Ti MOL
257 1 8 0.000000 4.530000 9.590000 6.450000 # Ti MOL
258 1 8 0.000000 6.040000 8.718000 0.000000 # Ti MOL
259 1 1 0.000000 6.040000 8.718000 4.837000 # C MOL
260 1 5 0.000000 4.530000 9.590000 1.613000 # N MOL
261 1 8 0.000000 3.020000 10.462000 3.225000 # Ti MOL
262 1 8 0.000000 3.020000 12.205000 6.450000 # Ti MOL
263 1 8 0.000000 4.530000 11.333000 0.000000 # Ti MOL
264 1 1 0.000000 4.530000 11.333000 4.837000 # C MOL
265 1 5 0.000000 3.020000 12.205000 1.613000 # N MOL
266 1 8 0.000000 1.510000 13.077000 3.225000 # Ti MOL
267 1 8 0.000000 1.510000 14.821000 6.450000 # Ti MOL
268 1 8 0.000000 3.020000 13.949000 0.000000 # Ti MOL
269 1 1 0.000000 3.020000 13.949000 4.837000 # C MOL
270 1 5 0.000000 1.510000 14.821000 1.613000 # N MOL
271 1 8 0.000000 0.000000 15.692000 3.225000 # Ti MOL
272 1 8 0.000000 48.320000 17.436001 6.450000 # Ti MOL
273 1 8 0.000000 1.510000 16.563999 0.000000 # Ti MOL
274 1 1 0.000000 1.510000 16.563999 4.837000 # C MOL
275 1 5 0.000000 48.320000 17.436001 1.613000 # N MOL
276 1 8 0.000000 46.810001 18.308001 3.225000 # Ti MOL
277 1 8 0.000000 46.810001 20.051001 6.450000 # Ti MOL
278 1 8 0.000000 0.000000 19.180000 0.000000 # Ti MOL
279 1 1 0.000000 0.000000 19.180000 4.837000 # C MOL
280 1 5 0.000000 46.810001 20.051001 1.613000 # N MOL
281 1 8 0.000000 45.299999 20.923000 3.225000 # Ti MOL
282 1 8 0.000000 45.299999 22.667000 6.450000 # Ti MOL
283 1 8 0.000000 46.810001 21.795000 0.000000 # Ti MOL
284 1 1 0.000000 46.810001 21.795000 4.837000 # C MOL
285 1 5 0.000000 45.299999 22.667000 1.613000 # N MOL
286 1 8 0.000000 43.790001 23.539000 3.225000 # Ti MOL
287 1 8 0.000000 43.790001 25.282000 6.450000 # Ti MOL
288 1 8 0.000000 45.299999 24.410000 0.000000 # Ti MOL
289 1 1 0.000000 45.299999 24.410000 4.837000 # C MOL
290 1 5 0.000000 43.790001 25.282000 1.613000 # N MOL
291 1 8 0.000000 42.279999 26.153999 3.225000 # Ti MOL
292 1 8 0.000000 42.279999 27.898001 6.450000 # Ti MOL
293 1 8 0.000000 43.790001 27.025999 0.000000 # Ti MOL
294 1 1 0.000000 43.790001 27.025999 4.837000 # C MOL
295 1 5 0.000000 42.279999 27.898001 1.613000 # N MOL
296 1 8 0.000000 40.770000 28.768999 3.225000 # Ti MOL
297 1 8 0.000000 40.770000 30.513000 6.450000 # Ti MOL
298 1 8 0.000000 42.279999 29.641001 0.000000 # Ti MOL
299 1 1 0.000000 42.279999 29.641001 4.837000 # C MOL
300 1 5 0.000000 40.770000 30.513000 1.613000 # N MOL
301 1 8 0.000000 39.259998 31.385000 3.225000 # Ti MOL
302 1 8 0.000000 39.259998 33.127998 6.450000 # Ti MOL
303 1 8 0.000000 40.770000 32.257000 0.000000 # Ti MOL
304 1 1 0.000000 40.770000 32.257000 4.837000 # C MOL
305 1 5 0.000000 39.259998 33.127998 1.613000 # N MOL
306 1 8 0.000000 37.750000 34.000000 3.225000 # Ti MOL
307 1 8 0.000000 37.750000 35.743999 6.450000 # Ti MOL
308 1 8 0.000000 39.259998 34.872002 0.000000 # Ti MOL
309 1 1 0.000000 39.259998 34.872002 4.837000 # C MOL
310 1 5 0.000000 37.750000 35.743999 1.613000 # N MOL
311 1 8 0.000000 36.240002 36.616001 3.225000 # Ti MOL
312 1 8 0.000000 36.240002 38.359001 6.450000 # Ti MOL
313 1 8 0.000000 37.750000 37.487000 0.000000 # Ti MOL
314 1 1 0.000000 37.750000 37.487000 4.837000 # C MOL
315 1 5 0.000000 36.240002 38.359001 1.613000 # N MOL
316 1 8 0.000000 34.730000 39.230999 3.225000 # Ti MOL
317 1 8 0.000000 34.730000 40.974998 6.450000 # Ti MOL
318 1 8 0.000000 36.240002 40.103001 0.000000 # Ti MOL
319 1 1 0.000000 36.240002 40.103001 4.837000 # C MOL
320 1 5 0.000000 34.730000 40.974998 1.613000 # N MOL
321 1 8 0.000000 12.080000 0.000000 3.225000 # Ti MOL
322 1 8 0.000000 12.080000 1.744000 6.450000 # Ti MOL
323 1 8 0.000000 13.590000 0.872000 0.000000 # Ti MOL
324 1 1 0.000000 13.590000 0.872000 4.837000 # C MOL
325 1 5 0.000000 12.080000 1.744000 1.613000 # N MOL
326 1 8 0.000000 10.570000 2.615000 3.225000 # Ti MOL
327 1 8 0.000000 10.570000 4.359000 6.450000 # Ti MOL
328 1 8 0.000000 12.080000 3.487000 0.000000 # Ti MOL
329 1 1 0.000000 12.080000 3.487000 4.837000 # C MOL
330 1 5 0.000000 10.570000 4.359000 1.613000 # N MOL
331 1 8 0.000000 9.060000 5.231000 3.225000 # Ti MOL
332 1 8 0.000000 9.060000 6.974000 6.450000 # Ti MOL
333 1 8 0.000000 10.570000 6.103000 0.000000 # Ti MOL
334 1 1 0.000000 10.570000 6.103000 4.837000 # C MOL
335 1 5 0.000000 9.060000 6.974000 1.613000 # N MOL
336 1 8 0.000000 7.550000 7.846000 3.225000 # Ti MOL
337 1 8 0.000000 7.550000 9.590000 6.450000 # Ti MOL
338 1 8 0.000000 9.060000 8.718000 0.000000 # Ti MOL
339 1 1 0.000000 9.060000 8.718000 4.837000 # C MOL
340 1 5 0.000000 7.550000 9.590000 1.613000 # N MOL
341 1 8 0.000000 6.040000 10.462000 3.225000 # Ti MOL
342 1 8 0.000000 6.040000 12.205000 6.450000 # Ti MOL
343 1 8 0.000000 7.550000 11.333000 0.000000 # Ti MOL
344 1 1 0.000000 7.550000 11.333000 4.837000 # C MOL
345 1 5 0.000000 6.040000 12.205000 1.613000 # N MOL
346 1 8 0.000000 4.530000 13.077000 3.225000 # Ti MOL
347 1 8 0.000000 4.530000 14.821000 6.450000 # Ti MOL
348 1 8 0.000000 6.040000 13.949000 0.000000 # Ti MOL
349 1 1 0.000000 6.040000 13.949000 4.837000 # C MOL
350 1 5 0.000000 4.530000 14.821000 1.613000 # N MOL
351 1 8 0.000000 3.020000 15.692000 3.225000 # Ti MOL
352 1 8 0.000000 3.020000 17.436001 6.450000 # Ti MOL
353 1 8 0.000000 4.530000 16.563999 0.000000 # Ti MOL
354 1 1 0.000000 4.530000 16.563999 4.837000 # C MOL
355 1 5 0.000000 3.020000 17.436001 1.613000 # N MOL
356 1 8 0.000000 1.510000 18.308001 3.225000 # Ti MOL
357 1 8 0.000000 1.510000 20.051001 6.450000 # Ti MOL
358 1 8 0.000000 3.020000 19.180000 0.000000 # Ti MOL
359 1 1 0.000000 3.020000 19.180000 4.837000 # C MOL
360 1 5 0.000000 1.510000 20.051001 1.613000 # N MOL
361 1 8 0.000000 0.000000 20.923000 3.225000 # Ti MOL
362 1 8 0.000000 48.320000 22.667000 6.450000 # Ti MOL
363 1 8 0.000000 1.510000 21.795000 0.000000 # Ti MOL
364 1 1 0.000000 1.510000 21.795000 4.837000 # C MOL
365 1 5 0.000000 48.320000 22.667000 1.613000 # N MOL
366 1 8 0.000000 46.810001 23.539000 3.225000 # Ti MOL
367 1 8 0.000000 46.810001 25.282000 6.450000 # Ti MOL
368 1 8 0.000000 0.000000 24.410000 0.000000 # Ti MOL
369 1 1 0.000000 0.000000 24.410000 4.837000 # C MOL
370 1 5 0.000000 46.810001 25.282000 1.613000 # N MOL
371 1 8 0.000000 45.299999 26.153999 3.225000 # Ti MOL
372 1 8 0.000000 45.299999 27.898001 6.450000 # Ti MOL
373 1 8 0.000000 46.810001 27.025999 0.000000 # Ti MOL
374 1 1 0.000000 46.810001 27.025999 4.837000 # C MOL
375 1 5 0.000000 45.299999 27.898001 1.613000 # N MOL
376 1 8 0.000000 43.790001 28.768999 3.225000 # Ti MOL
377 1 8 0.000000 43.790001 30.513000 6.450000 # Ti MOL
378 1 8 0.000000 45.299999 29.641001 0.000000 # Ti MOL
379 1 1 0.000000 45.299999 29.641001 4.837000 # C MOL
380 1 5 0.000000 43.790001 30.513000 1.613000 # N MOL
381 1 8 0.000000 42.279999 31.385000 3.225000 # Ti MOL
382 1 8 0.000000 42.279999 33.127998 6.450000 # Ti MOL
383 1 8 0.000000 43.790001 32.257000 0.000000 # Ti MOL
384 1 1 0.000000 43.790001 32.257000 4.837000 # C MOL
385 1 5 0.000000 42.279999 33.127998 1.613000 # N MOL
386 1 8 0.000000 40.770000 34.000000 3.225000 # Ti MOL
387 1 8 0.000000 40.770000 35.743999 6.450000 # Ti MOL
388 1 8 0.000000 42.279999 34.872002 0.000000 # Ti MOL
389 1 1 0.000000 42.279999 34.872002 4.837000 # C MOL
390 1 5 0.000000 40.770000 35.743999 1.613000 # N MOL
391 1 8 0.000000 39.259998 36.616001 3.225000 # Ti MOL
392 1 8 0.000000 39.259998 38.359001 6.450000 # Ti MOL
393 1 8 0.000000 40.770000 37.487000 0.000000 # Ti MOL
394 1 1 0.000000 40.770000 37.487000 4.837000 # C MOL
395 1 5 0.000000 39.259998 38.359001 1.613000 # N MOL
396 1 8 0.000000 37.750000 39.230999 3.225000 # Ti MOL
397 1 8 0.000000 37.750000 40.974998 6.450000 # Ti MOL
398 1 8 0.000000 39.259998 40.103001 0.000000 # Ti MOL
399 1 1 0.000000 39.259998 40.103001 4.837000 # C MOL
400 1 5 0.000000 37.750000 40.974998 1.613000 # N MOL
401 1 8 0.000000 15.100000 0.000000 3.225000 # Ti MOL
402 1 8 0.000000 15.100000 1.744000 6.450000 # Ti MOL
403 1 8 0.000000 16.610001 0.872000 0.000000 # Ti MOL
404 1 1 0.000000 16.610001 0.872000 4.837000 # C MOL
405 1 5 0.000000 15.100000 1.744000 1.613000 # N MOL
406 1 8 0.000000 13.590000 2.615000 3.225000 # Ti MOL
407 1 8 0.000000 13.590000 4.359000 6.450000 # Ti MOL
408 1 8 0.000000 15.100000 3.487000 0.000000 # Ti MOL
409 1 1 0.000000 15.100000 3.487000 4.837000 # C MOL
410 1 5 0.000000 13.590000 4.359000 1.613000 # N MOL
411 1 8 0.000000 12.080000 5.231000 3.225000 # Ti MOL
412 1 8 0.000000 12.080000 6.974000 6.450000 # Ti MOL
413 1 8 0.000000 13.590000 6.103000 0.000000 # Ti MOL
414 1 1 0.000000 13.590000 6.103000 4.837000 # C MOL
415 1 5 0.000000 12.080000 6.974000 1.613000 # N MOL
416 1 8 0.000000 10.570000 7.846000 3.225000 # Ti MOL
417 1 8 0.000000 10.570000 9.590000 6.450000 # Ti MOL
418 1 8 0.000000 12.080000 8.718000 0.000000 # Ti MOL
419 1 1 0.000000 12.080000 8.718000 4.837000 # C MOL
420 1 5 0.000000 10.570000 9.590000 1.613000 # N MOL
421 1 8 0.000000 9.060000 10.462000 3.225000 # Ti MOL
422 1 8 0.000000 9.060000 12.205000 6.450000 # Ti MOL
423 1 8 0.000000 10.570000 11.333000 0.000000 # Ti MOL
424 1 1 0.000000 10.570000 11.333000 4.837000 # C MOL
425 1 5 0.000000 9.060000 12.205000 1.613000 # N MOL
426 1 8 0.000000 7.550000 13.077000 3.225000 # Ti MOL
427 1 8 0.000000 7.550000 14.821000 6.450000 # Ti MOL
428 1 8 0.000000 9.060000 13.949000 0.000000 # Ti MOL
429 1 1 0.000000 9.060000 13.949000 4.837000 # C MOL
430 1 5 0.000000 7.550000 14.821000 1.613000 # N MOL
431 1 8 0.000000 6.040000 15.692000 3.225000 # Ti MOL
432 1 8 0.000000 6.040000 17.436001 6.450000 # Ti MOL
433 1 8 0.000000 7.550000 16.563999 0.000000 # Ti MOL
434 1 1 0.000000 7.550000 16.563999 4.837000 # C MOL
435 1 5 0.000000 6.040000 17.436001 1.613000 # N MOL
436 1 8 0.000000 4.530000 18.308001 3.225000 # Ti MOL
437 1 8 0.000000 4.530000 20.051001 6.450000 # Ti MOL
438 1 8 0.000000 6.040000 19.180000 0.000000 # Ti MOL
439 1 1 0.000000 6.040000 19.180000 4.837000 # C MOL
440 1 5 0.000000 4.530000 20.051001 1.613000 # N MOL
441 1 8 0.000000 3.020000 20.923000 3.225000 # Ti MOL
442 1 8 0.000000 3.020000 22.667000 6.450000 # Ti MOL
443 1 8 0.000000 4.530000 21.795000 0.000000 # Ti MOL
444 1 1 0.000000 4.530000 21.795000 4.837000 # C MOL
445 1 5 0.000000 3.020000 22.667000 1.613000 # N MOL
446 1 8 0.000000 1.510000 23.539000 3.225000 # Ti MOL
447 1 8 0.000000 1.510000 25.282000 6.450000 # Ti MOL
448 1 8 0.000000 3.020000 24.410000 0.000000 # Ti MOL
449 1 1 0.000000 3.020000 24.410000 4.837000 # C MOL
450 1 5 0.000000 1.510000 25.282000 1.613000 # N MOL
451 1 8 0.000000 0.000000 26.153999 3.225000 # Ti MOL
452 1 8 0.000000 48.320000 27.898001 6.450000 # Ti MOL
453 1 8 0.000000 1.510000 27.025999 0.000000 # Ti MOL
454 1 1 0.000000 1.510000 27.025999 4.837000 # C MOL
455 1 5 0.000000 48.320000 27.898001 1.613000 # N MOL
456 1 8 0.000000 46.810001 28.768999 3.225000 # Ti MOL
457 1 8 0.000000 46.810001 30.513000 6.450000 # Ti MOL
458 1 8 0.000000 0.000000 29.641001 0.000000 # Ti MOL
459 1 1 0.000000 0.000000 29.641001 4.837000 # C MOL
460 1 5 0.000000 46.810001 30.513000 1.613000 # N MOL
461 1 8 0.000000 45.299999 31.385000 3.225000 # Ti MOL
462 1 8 0.000000 45.299999 33.127998 6.450000 # Ti MOL
463 1 8 0.000000 46.810001 32.257000 0.000000 # Ti MOL
464 1 1 0.000000 46.810001 32.257000 4.837000 # C MOL
465 1 5 0.000000 45.299999 33.127998 1.613000 # N MOL
466 1 8 0.000000 43.790001 34.000000 3.225000 # Ti MOL
467 1 8 0.000000 43.790001 35.743999 6.450000 # Ti MOL
468 1 8 0.000000 45.299999 34.872002 0.000000 # Ti MOL
469 1 1 0.000000 45.299999 34.872002 4.837000 # C MOL
470 1 5 0.000000 43.790001 35.743999 1.613000 # N MOL
471 1 8 0.000000 42.279999 36.616001 3.225000 # Ti MOL
472 1 8 0.000000 42.279999 38.359001 6.450000 # Ti MOL
473 1 8 0.000000 43.790001 37.487000 0.000000 # Ti MOL
474 1 1 0.000000 43.790001 37.487000 4.837000 # C MOL
475 1 5 0.000000 42.279999 38.359001 1.613000 # N MOL
476 1 8 0.000000 40.770000 39.230999 3.225000 # Ti MOL
477 1 8 0.000000 40.770000 40.974998 6.450000 # Ti MOL
478 1 8 0.000000 42.279999 40.103001 0.000000 # Ti MOL
479 1 1 0.000000 42.279999 40.103001 4.837000 # C MOL
480 1 5 0.000000 40.770000 40.974998 1.613000 # N MOL
481 1 8 0.000000 18.120001 0.000000 3.225000 # Ti MOL
482 1 8 0.000000 18.120001 1.744000 6.450000 # Ti MOL
483 1 8 0.000000 19.629999 0.872000 0.000000 # Ti MOL
484 1 1 0.000000 19.629999 0.872000 4.837000 # C MOL
485 1 5 0.000000 18.120001 1.744000 1.613000 # N MOL
486 1 8 0.000000 16.610001 2.615000 3.225000 # Ti MOL
487 1 8 0.000000 16.610001 4.359000 6.450000 # Ti MOL
488 1 8 0.000000 18.120001 3.487000 0.000000 # Ti MOL
489 1 1 0.000000 18.120001 3.487000 4.837000 # C MOL
490 1 5 0.000000 16.610001 4.359000 1.613000 # N MOL
491 1 8 0.000000 15.100000 5.231000 3.225000 # Ti MOL
492 1 8 0.000000 15.100000 6.974000 6.450000 # Ti MOL
493 1 8 0.000000 16.610001 6.103000 0.000000 # Ti MOL
494 1 1 0.000000 16.610001 6.103000 4.837000 # C MOL
495 1 5 0.000000 15.100000 6.974000 1.613000 # N MOL
496 1 8 0.000000 13.590000 7.846000 3.225000 # Ti MOL
497 1 8 0.000000 13.590000 9.590000 6.450000 # Ti MOL
498 1 8 0.000000 15.100000 8.718000 0.000000 # Ti MOL
499 1 1 0.000000 15.100000 8.718000 4.837000 # C MOL
500 1 5 0.000000 13.590000 9.590000 1.613000 # N MOL
501 1 8 0.000000 12.080000 10.462000 3.225000 # Ti MOL
502 1 8 0.000000 12.080000 12.205000 6.450000 # Ti MOL
503 1 8 0.000000 13.590000 11.333000 0.000000 # Ti MOL
504 1 1 0.000000 13.590000 11.333000 4.837000 # C MOL
505 1 5 0.000000 12.080000 12.205000 1.613000 # N MOL
506 1 8 0.000000 10.570000 13.077000 3.225000 # Ti MOL
507 1 8 0.000000 10.570000 14.821000 6.450000 # Ti MOL
508 1 8 0.000000 12.080000 13.949000 0.000000 # Ti MOL
509 1 1 0.000000 12.080000 13.949000 4.837000 # C MOL
510 1 5 0.000000 10.570000 14.821000 1.613000 # N MOL
511 1 8 0.000000 9.060000 15.692000 3.225000 # Ti MOL
512 1 8 0.000000 9.060000 17.436001 6.450000 # Ti MOL
513 1 8 0.000000 10.570000 16.563999 0.000000 # Ti MOL
514 1 1 0.000000 10.570000 16.563999 4.837000 # C MOL
515 1 5 0.000000 9.060000 17.436001 1.613000 # N MOL
516 1 8 0.000000 7.550000 18.308001 3.225000 # Ti MOL
517 1 8 0.000000 7.550000 20.051001 6.450000 # Ti MOL
518 1 8 0.000000 9.060000 19.180000 0.000000 # Ti MOL
519 1 1 0.000000 9.060000 19.180000 4.837000 # C MOL
520 1 5 0.000000 7.550000 20.051001 1.613000 # N MOL
521 1 8 0.000000 6.040000 20.923000 3.225000 # Ti MOL
522 1 8 0.000000 6.040000 22.667000 6.450000 # Ti MOL
523 1 8 0.000000 7.550000 21.795000 0.000000 # Ti MOL
524 1 1 0.000000 7.550000 21.795000 4.837000 # C MOL
525 1 5 0.000000 6.040000 22.667000 1.613000 # N MOL
526 1 8 0.000000 4.530000 23.539000 3.225000 # Ti MOL
527 1 8 0.000000 4.530000 25.282000 6.450000 # Ti MOL
528 1 8 0.000000 6.040000 24.410000 0.000000 # Ti MOL
529 1 1 0.000000 6.040000 24.410000 4.837000 # C MOL
530 1 5 0.000000 4.530000 25.282000 1.613000 # N MOL
531 1 8 0.000000 3.020000 26.153999 3.225000 # Ti MOL
532 1 8 0.000000 3.020000 27.898001 6.450000 # Ti MOL
533 1 8 0.000000 4.530000 27.025999 0.000000 # Ti MOL
534 1 1 0.000000 4.530000 27.025999 4.837000 # C MOL
535 1 5 0.000000 3.020000 27.898001 1.613000 # N MOL
536 1 8 0.000000 1.510000 28.768999 3.225000 # Ti MOL
537 1 8 0.000000 1.510000 30.513000 6.450000 # Ti MOL
538 1 8 0.000000 3.020000 29.641001 0.000000 # Ti MOL
539 1 1 0.000000 3.020000 29.641001 4.837000 # C MOL
540 1 5 0.000000 1.510000 30.513000 1.613000 # N MOL